s 5.476068155 _1_ AGT  --- 0 cbr 8 [0 0 0 0] [energy 1000.000000 ei 0.000 es 0.000 et 0.000 er 0.000] ------- [1:0 39:1 32 0] [0] 0 0
s 5.476413155 _1_ MAC  --- 0 AODV 55 [0 ffffffff 1 800] [energy 995.238752 ei 4.761 es 0.000 et 0.000 er 0.000] ------- [1:255 -1:255 30 0] [0x2 1 1 [39 0] [1 4]] (REQUEST)
s 5.486068155 _1_ AGT  --- 1 cbr 8 [0 0 0 0] [energy 995.235307 ei 4.761 es 0.000 et 0.003 er 0.000] ------- [1:0 39:1 32 0] [1] 0 0
s 5.496068155 _1_ AGT  --- 2 cbr 8 [0 0 0 0] [energy 995.235307 ei 4.761 es 0.000 et 0.003 er 0.000] ------- [1:0 39:1 32 0] [2] 0 0
s 5.506068155 _1_ AGT  --- 3 cbr 8 [0 0 0 0] [energy 995.235307 ei 4.761 es 0.000 et 0.003 er 0.000] ------- [1:0 39:1 32 0] [3] 0 0
s 5.516068155 _1_ AGT  --- 4 cbr 8 [0 0 0 0] [energy 995.235307 ei 4.761 es 0.000 et 0.003 er 0.000] ------- [1:0 39:1 32 0] [4] 0 0
s 5.526068155 _1_ AGT  --- 5 cbr 8 [0 0 0 0] [energy 995.235307 ei 4.761 es 0.000 et 0.003 er 0.000] ------- [1:0 39:1 32 0] [5] 0 0
s 5.536068155 _1_ AGT  --- 6 cbr 8 [0 0 0 0] [energy 995.235307 ei 4.761 es 0.000 et 0.003 er 0.000] ------- [1:0 39:1 32 0] [6] 0 0
s 5.546068155 _1_ AGT  --- 7 cbr 8 [0 0 0 0] [energy 995.235307 ei 4.761 es 0.000 et 0.003 er 0.000] ------- [1:0 39:1 32 0] [7] 0 0
s 5.556068155 _1_ AGT  --- 8 cbr 8 [0 0 0 0] [energy 995.235307 ei 4.761 es 0.000 et 0.003 er 0.000] ------- [1:0 39:1 32 0] [8] 0 0
s 5.566068155 _1_ AGT  --- 9 cbr 8 [0 0 0 0] [energy 995.235307 ei 4.761 es 0.000 et 0.003 er 0.000] ------- [1:0 39:1 32 0] [9] 0 0
s 5.576068155 _1_ AGT  --- 10 cbr 8 [0 0 0 0] [energy 995.235307 ei 4.761 es 0.000 et 0.003 er 0.000] ------- [1:0 39:1 32 0] [10] 0 0
s 5.586068155 _1_ AGT  --- 11 cbr 8 [0 0 0 0] [energy 995.235307 ei 4.761 es 0.000 et 0.003 er 0.000] ------- [1:0 39:1 32 0] [11] 0 0
s 5.596068155 _1_ AGT  --- 12 cbr 8 [0 0 0 0] [energy 995.235307 ei 4.761 es 0.000 et 0.003 er 0.000] ------- [1:0 39:1 32 0] [12] 0 0
s 5.606068155 _1_ AGT  --- 13 cbr 8 [0 0 0 0] [energy 995.235307 ei 4.761 es 0.000 et 0.003 er 0.000] ------- [1:0 39:1 32 0] [13] 0 0
s 5.616068155 _1_ AGT  --- 14 cbr 8 [0 0 0 0] [energy 995.235307 ei 4.761 es 0.000 et 0.003 er 0.000] ------- [1:0 39:1 32 0] [14] 0 0
s 5.626068155 _1_ AGT  --- 15 cbr 8 [0 0 0 0] [energy 995.235307 ei 4.761 es 0.000 et 0.003 er 0.000] ------- [1:0 39:1 32 0] [15] 0 0
s 5.636068155 _1_ AGT  --- 16 cbr 8 [0 0 0 0] [energy 995.235307 ei 4.761 es 0.000 et 0.003 er 0.000] ------- [1:0 39:1 32 0] [16] 0 0
s 5.646068155 _1_ AGT  --- 17 cbr 8 [0 0 0 0] [energy 995.235307 ei 4.761 es 0.000 et 0.003 er 0.000] ------- [1:0 39:1 32 0] [17] 0 0
s 5.656068155 _1_ AGT  --- 18 cbr 8 [0 0 0 0] [energy 995.235307 ei 4.761 es 0.000 et 0.003 er 0.000] ------- [1:0 39:1 32 0] [18] 0 0
s 5.666068155 _1_ AGT  --- 19 cbr 8 [0 0 0 0] [energy 995.235307 ei 4.761 es 0.000 et 0.003 er 0.000] ------- [1:0 39:1 32 0] [19] 0 0
s 5.676068155 _1_ AGT  --- 20 cbr 8 [0 0 0 0] [energy 995.235307 ei 4.761 es 0.000 et 0.003 er 0.000] ------- [1:0 39:1 32 0] [20] 0 0
s 5.686068155 _1_ AGT  --- 21 cbr 8 [0 0 0 0] [energy 995.235307 ei 4.761 es 0.000 et 0.003 er 0.000] ------- [1:0 39:1 32 0] [21] 0 0
s 5.696068155 _1_ AGT  --- 22 cbr 8 [0 0 0 0] [energy 995.235307 ei 4.761 es 0.000 et 0.003 er 0.000] ------- [1:0 39:1 32 0] [22] 0 0
s 5.706068155 _1_ AGT  --- 23 cbr 8 [0 0 0 0] [energy 995.235307 ei 4.761 es 0.000 et 0.003 er 0.000] ------- [1:0 39:1 32 0] [23] 0 0
s 5.716068155 _1_ AGT  --- 24 cbr 8 [0 0 0 0] [energy 995.235307 ei 4.761 es 0.000 et 0.003 er 0.000] ------- [1:0 39:1 32 0] [24] 0 0
s 5.726068155 _1_ AGT  --- 25 cbr 8 [0 0 0 0] [energy 995.235307 ei 4.761 es 0.000 et 0.003 er 0.000] ------- [1:0 39:1 32 0] [25] 0 0
s 5.736068155 _1_ AGT  --- 26 cbr 8 [0 0 0 0] [energy 995.235307 ei 4.761 es 0.000 et 0.003 er 0.000] ------- [1:0 39:1 32 0] [26] 0 0
s 5.746068155 _1_ AGT  --- 27 cbr 8 [0 0 0 0] [energy 995.235307 ei 4.761 es 0.000 et 0.003 er 0.000] ------- [1:0 39:1 32 0] [27] 0 0
s 5.756068155 _1_ AGT  --- 28 cbr 8 [0 0 0 0] [energy 995.235307 ei 4.761 es 0.000 et 0.003 er 0.000] ------- [1:0 39:1 32 0] [28] 0 0
s 5.766068155 _1_ AGT  --- 29 cbr 8 [0 0 0 0] [energy 995.235307 ei 4.761 es 0.000 et 0.003 er 0.000] ------- [1:0 39:1 32 0] [29] 0 0
s 5.771700843 _0_ AGT  --- 30 cbr 8 [0 0 0 0] [energy 1000.000000 ei 0.000 es 0.000 et 0.000 er 0.000] ------- [0:0 39:0 32 0] [0] 0 0
s 5.773005843 _0_ MAC  --- 0 AODV 55 [0 ffffffff 0 800] [energy 994.980894 ei 5.019 es 0.000 et 0.000 er 0.000] ------- [0:255 -1:255 30 0] [0x2 1 1 [39 0] [0 4]] (REQUEST)
s 5.776068155 _1_ AGT  --- 31 cbr 8 [0 0 0 0] [energy 995.235307 ei 4.761 es 0.000 et 0.003 er 0.000] ------- [1:0 39:1 32 0] [30] 0 0
s 5.781700843 _0_ AGT  --- 32 cbr 8 [0 0 0 0] [energy 994.977449 ei 5.019 es 0.000 et 0.003 er 0.000] ------- [0:0 39:0 32 0] [1] 0 0
s 5.786068155 _1_ AGT  --- 33 cbr 8 [0 0 0 0] [energy 995.235307 ei 4.761 es 0.000 et 0.003 er 0.000] ------- [1:0 39:1 32 0] [31] 0 0
s 5.791700843 _0_ AGT  --- 34 cbr 8 [0 0 0 0] [energy 994.977449 ei 5.019 es 0.000 et 0.003 er 0.000] ------- [0:0 39:0 32 0] [2] 0 0
s 5.796068155 _1_ AGT  --- 35 cbr 8 [0 0 0 0] [energy 995.235307 ei 4.761 es 0.000 et 0.003 er 0.000] ------- [1:0 39:1 32 0] [32] 0 0
s 5.801700843 _0_ AGT  --- 36 cbr 8 [0 0 0 0] [energy 994.977449 ei 5.019 es 0.000 et 0.003 er 0.000] ------- [0:0 39:0 32 0] [3] 0 0
s 5.806068155 _1_ AGT  --- 37 cbr 8 [0 0 0 0] [energy 995.235307 ei 4.761 es 0.000 et 0.003 er 0.000] ------- [1:0 39:1 32 0] [33] 0 0
s 5.811700843 _0_ AGT  --- 38 cbr 8 [0 0 0 0] [energy 994.977449 ei 5.019 es 0.000 et 0.003 er 0.000] ------- [0:0 39:0 32 0] [4] 0 0
s 5.816068155 _1_ AGT  --- 39 cbr 8 [0 0 0 0] [energy 995.235307 ei 4.761 es 0.000 et 0.003 er 0.000] ------- [1:0 39:1 32 0] [34] 0 0
s 5.821700843 _0_ AGT  --- 40 cbr 8 [0 0 0 0] [energy 994.977449 ei 5.019 es 0.000 et 0.003 er 0.000] ------- [0:0 39:0 32 0] [5] 0 0
s 5.826068155 _1_ AGT  --- 41 cbr 8 [0 0 0 0] [energy 995.235307 ei 4.761 es 0.000 et 0.003 er 0.000] ------- [1:0 39:1 32 0] [35] 0 0
s 5.831700843 _0_ AGT  --- 42 cbr 8 [0 0 0 0] [energy 994.977449 ei 5.019 es 0.000 et 0.003 er 0.000] ------- [0:0 39:0 32 0] [6] 0 0
s 5.836068155 _1_ AGT  --- 43 cbr 8 [0 0 0 0] [energy 995.235307 ei 4.761 es 0.000 et 0.003 er 0.000] ------- [1:0 39:1 32 0] [36] 0 0
s 5.841700843 _0_ AGT  --- 44 cbr 8 [0 0 0 0] [energy 994.977449 ei 5.019 es 0.000 et 0.003 er 0.000] ------- [0:0 39:0 32 0] [7] 0 0
s 5.846068155 _1_ AGT  --- 45 cbr 8 [0 0 0 0] [energy 995.235307 ei 4.761 es 0.000 et 0.003 er 0.000] ------- [1:0 39:1 32 0] [37] 0 0
s 5.851700843 _0_ AGT  --- 46 cbr 8 [0 0 0 0] [energy 994.977449 ei 5.019 es 0.000 et 0.003 er 0.000] ------- [0:0 39:0 32 0] [8] 0 0
s 5.856068155 _1_ AGT  --- 47 cbr 8 [0 0 0 0] [energy 995.235307 ei 4.761 es 0.000 et 0.003 er 0.000] ------- [1:0 39:1 32 0] [38] 0 0
s 5.861700843 _0_ AGT  --- 48 cbr 8 [0 0 0 0] [energy 994.977449 ei 5.019 es 0.000 et 0.003 er 0.000] ------- [0:0 39:0 32 0] [9] 0 0
s 5.866068155 _1_ AGT  --- 49 cbr 8 [0 0 0 0] [energy 995.235307 ei 4.761 es 0.000 et 0.003 er 0.000] ------- [1:0 39:1 32 0] [39] 0 0
s 5.871700843 _0_ AGT  --- 50 cbr 8 [0 0 0 0] [energy 994.977449 ei 5.019 es 0.000 et 0.003 er 0.000] ------- [0:0 39:0 32 0] [10] 0 0
s 5.876068155 _1_ AGT  --- 51 cbr 8 [0 0 0 0] [energy 995.235307 ei 4.761 es 0.000 et 0.003 er 0.000] ------- [1:0 39:1 32 0] [40] 0 0
s 5.877566187 _4_ AGT  --- 52 cbr 8 [0 0 0 0] [energy 1000.000000 ei 0.000 es 0.000 et 0.000 er 0.000] ------- [4:0 39:4 32 0] [0] 0 0
s 5.879511187 _4_ MAC  --- 0 AODV 55 [0 ffffffff 4 800] [energy 994.888299 ei 5.111 es 0.000 et 0.000 er 0.000] ------- [4:255 -1:255 30 0] [0x2 1 1 [39 0] [4 4]] (REQUEST)
s 5.881700843 _0_ AGT  --- 53 cbr 8 [0 0 0 0] [energy 994.977449 ei 5.019 es 0.000 et 0.003 er 0.000] ------- [0:0 39:0 32 0] [11] 0 0
s 5.886068155 _1_ AGT  --- 54 cbr 8 [0 0 0 0] [energy 995.235307 ei 4.761 es 0.000 et 0.003 er 0.000] ------- [1:0 39:1 32 0] [41] 0 0
s 5.887566187 _4_ AGT  --- 55 cbr 8 [0 0 0 0] [energy 994.884854 ei 5.111 es 0.000 et 0.003 er 0.000] ------- [4:0 39:4 32 0] [1] 0 0
s 5.891700843 _0_ AGT  --- 56 cbr 8 [0 0 0 0] [energy 994.977449 ei 5.019 es 0.000 et 0.003 er 0.000] ------- [0:0 39:0 32 0] [12] 0 0
s 5.896068155 _1_ AGT  --- 57 cbr 8 [0 0 0 0] [energy 995.235307 ei 4.761 es 0.000 et 0.003 er 0.000] ------- [1:0 39:1 32 0] [42] 0 0
s 5.897566187 _4_ AGT  --- 58 cbr 8 [0 0 0 0] [energy 994.884854 ei 5.111 es 0.000 et 0.003 er 0.000] ------- [4:0 39:4 32 0] [2] 0 0
s 5.901700843 _0_ AGT  --- 59 cbr 8 [0 0 0 0] [energy 994.977449 ei 5.019 es 0.000 et 0.003 er 0.000] ------- [0:0 39:0 32 0] [13] 0 0
s 5.906068155 _1_ AGT  --- 60 cbr 8 [0 0 0 0] [energy 995.235307 ei 4.761 es 0.000 et 0.003 er 0.000] ------- [1:0 39:1 32 0] [43] 0 0
s 5.907566187 _4_ AGT  --- 61 cbr 8 [0 0 0 0] [energy 994.884854 ei 5.111 es 0.000 et 0.003 er 0.000] ------- [4:0 39:4 32 0] [3] 0 0
s 5.911700843 _0_ AGT  --- 62 cbr 8 [0 0 0 0] [energy 994.977449 ei 5.019 es 0.000 et 0.003 er 0.000] ------- [0:0 39:0 32 0] [14] 0 0
s 5.916068155 _1_ AGT  --- 63 cbr 8 [0 0 0 0] [energy 995.235307 ei 4.761 es 0.000 et 0.003 er 0.000] ------- [1:0 39:1 32 0] [44] 0 0
s 5.917566187 _4_ AGT  --- 64 cbr 8 [0 0 0 0] [energy 994.884854 ei 5.111 es 0.000 et 0.003 er 0.000] ------- [4:0 39:4 32 0] [4] 0 0
s 5.921700843 _0_ AGT  --- 65 cbr 8 [0 0 0 0] [energy 994.977449 ei 5.019 es 0.000 et 0.003 er 0.000] ------- [0:0 39:0 32 0] [15] 0 0
s 5.926068155 _1_ AGT  --- 66 cbr 8 [0 0 0 0] [energy 995.235307 ei 4.761 es 0.000 et 0.003 er 0.000] ------- [1:0 39:1 32 0] [45] 0 0
s 5.927566187 _4_ AGT  --- 67 cbr 8 [0 0 0 0] [energy 994.884854 ei 5.111 es 0.000 et 0.003 er 0.000] ------- [4:0 39:4 32 0] [5] 0 0
s 5.931700843 _0_ AGT  --- 68 cbr 8 [0 0 0 0] [energy 994.977449 ei 5.019 es 0.000 et 0.003 er 0.000] ------- [0:0 39:0 32 0] [16] 0 0
s 5.936068155 _1_ AGT  --- 69 cbr 8 [0 0 0 0] [energy 995.235307 ei 4.761 es 0.000 et 0.003 er 0.000] ------- [1:0 39:1 32 0] [46] 0 0
s 5.937566187 _4_ AGT  --- 70 cbr 8 [0 0 0 0] [energy 994.884854 ei 5.111 es 0.000 et 0.003 er 0.000] ------- [4:0 39:4 32 0] [6] 0 0
s 5.941700843 _0_ AGT  --- 71 cbr 8 [0 0 0 0] [energy 994.977449 ei 5.019 es 0.000 et 0.003 er 0.000] ------- [0:0 39:0 32 0] [17] 0 0
s 5.946068155 _1_ AGT  --- 72 cbr 8 [0 0 0 0] [energy 995.235307 ei 4.761 es 0.000 et 0.003 er 0.000] ------- [1:0 39:1 32 0] [47] 0 0
s 5.947566187 _4_ AGT  --- 73 cbr 8 [0 0 0 0] [energy 994.884854 ei 5.111 es 0.000 et 0.003 er 0.000] ------- [4:0 39:4 32 0] [7] 0 0
s 5.951700843 _0_ AGT  --- 74 cbr 8 [0 0 0 0] [energy 994.977449 ei 5.019 es 0.000 et 0.003 er 0.000] ------- [0:0 39:0 32 0] [18] 0 0
s 5.956068155 _1_ AGT  --- 75 cbr 8 [0 0 0 0] [energy 995.235307 ei 4.761 es 0.000 et 0.003 er 0.000] ------- [1:0 39:1 32 0] [48] 0 0
s 5.957566187 _4_ AGT  --- 76 cbr 8 [0 0 0 0] [energy 994.884854 ei 5.111 es 0.000 et 0.003 er 0.000] ------- [4:0 39:4 32 0] [8] 0 0
s 5.961700843 _0_ AGT  --- 77 cbr 8 [0 0 0 0] [energy 994.977449 ei 5.019 es 0.000 et 0.003 er 0.000] ------- [0:0 39:0 32 0] [19] 0 0
s 5.966068155 _1_ AGT  --- 78 cbr 8 [0 0 0 0] [energy 995.235307 ei 4.761 es 0.000 et 0.003 er 0.000] ------- [1:0 39:1 32 0] [49] 0 0
s 5.967566187 _4_ AGT  --- 79 cbr 8 [0 0 0 0] [energy 994.884854 ei 5.111 es 0.000 et 0.003 er 0.000] ------- [4:0 39:4 32 0] [9] 0 0
s 5.971700843 _0_ AGT  --- 80 cbr 8 [0 0 0 0] [energy 994.977449 ei 5.019 es 0.000 et 0.003 er 0.000] ------- [0:0 39:0 32 0] [20] 0 0
s 5.976068155 _1_ AGT  --- 81 cbr 8 [0 0 0 0] [energy 995.235307 ei 4.761 es 0.000 et 0.003 er 0.000] ------- [1:0 39:1 32 0] [50] 0 0
s 5.977566187 _4_ AGT  --- 82 cbr 8 [0 0 0 0] [energy 994.884854 ei 5.111 es 0.000 et 0.003 er 0.000] ------- [4:0 39:4 32 0] [10] 0 0
s 5.981700843 _0_ AGT  --- 83 cbr 8 [0 0 0 0] [energy 994.977449 ei 5.019 es 0.000 et 0.003 er 0.000] ------- [0:0 39:0 32 0] [21] 0 0
s 5.986068155 _1_ AGT  --- 84 cbr 8 [0 0 0 0] [energy 995.235307 ei 4.761 es 0.000 et 0.003 er 0.000] ------- [1:0 39:1 32 0] [51] 0 0
s 5.987566187 _4_ AGT  --- 85 cbr 8 [0 0 0 0] [energy 994.884854 ei 5.111 es 0.000 et 0.003 er 0.000] ------- [4:0 39:4 32 0] [11] 0 0
s 5.991700843 _0_ AGT  --- 86 cbr 8 [0 0 0 0] [energy 994.977449 ei 5.019 es 0.000 et 0.003 er 0.000] ------- [0:0 39:0 32 0] [22] 0 0
s 5.996068155 _1_ AGT  --- 87 cbr 8 [0 0 0 0] [energy 995.235307 ei 4.761 es 0.000 et 0.003 er 0.000] ------- [1:0 39:1 32 0] [52] 0 0
s 5.997566187 _4_ AGT  --- 88 cbr 8 [0 0 0 0] [energy 994.884854 ei 5.111 es 0.000 et 0.003 er 0.000] ------- [4:0 39:4 32 0] [12] 0 0
s 6.001700843 _0_ AGT  --- 89 cbr 8 [0 0 0 0] [energy 994.977449 ei 5.019 es 0.000 et 0.003 er 0.000] ------- [0:0 39:0 32 0] [23] 0 0
s 6.006068155 _1_ AGT  --- 90 cbr 8 [0 0 0 0] [energy 995.235307 ei 4.761 es 0.000 et 0.003 er 0.000] ------- [1:0 39:1 32 0] [53] 0 0
s 6.007566187 _4_ AGT  --- 91 cbr 8 [0 0 0 0] [energy 994.884854 ei 5.111 es 0.000 et 0.003 er 0.000] ------- [4:0 39:4 32 0] [13] 0 0
s 6.011700843 _0_ AGT  --- 92 cbr 8 [0 0 0 0] [energy 994.977449 ei 5.019 es 0.000 et 0.003 er 0.000] ------- [0:0 39:0 32 0] [24] 0 0
s 6.016068155 _1_ AGT  --- 93 cbr 8 [0 0 0 0] [energy 995.235307 ei 4.761 es 0.000 et 0.003 er 0.000] ------- [1:0 39:1 32 0] [54] 0 0
s 6.017566187 _4_ AGT  --- 94 cbr 8 [0 0 0 0] [energy 994.884854 ei 5.111 es 0.000 et 0.003 er 0.000] ------- [4:0 39:4 32 0] [14] 0 0
s 6.021700843 _0_ AGT  --- 95 cbr 8 [0 0 0 0] [energy 994.977449 ei 5.019 es 0.000 et 0.003 er 0.000] ------- [0:0 39:0 32 0] [25] 0 0
s 6.026068155 _1_ AGT  --- 96 cbr 8 [0 0 0 0] [energy 995.235307 ei 4.761 es 0.000 et 0.003 er 0.000] ------- [1:0 39:1 32 0] [55] 0 0
s 6.027566187 _4_ AGT  --- 97 cbr 8 [0 0 0 0] [energy 994.884854 ei 5.111 es 0.000 et 0.003 er 0.000] ------- [4:0 39:4 32 0] [15] 0 0
s 6.031700843 _0_ AGT  --- 98 cbr 8 [0 0 0 0] [energy 994.977449 ei 5.019 es 0.000 et 0.003 er 0.000] ------- [0:0 39:0 32 0] [26] 0 0
s 6.036068155 _1_ AGT  --- 99 cbr 8 [0 0 0 0] [energy 995.235307 ei 4.761 es 0.000 et 0.003 er 0.000] ------- [1:0 39:1 32 0] [56] 0 0
s 6.037566187 _4_ AGT  --- 100 cbr 8 [0 0 0 0] [energy 994.884854 ei 5.111 es 0.000 et 0.003 er 0.000] ------- [4:0 39:4 32 0] [16] 0 0
s 6.041700843 _0_ AGT  --- 101 cbr 8 [0 0 0 0] [energy 994.977449 ei 5.019 es 0.000 et 0.003 er 0.000] ------- [0:0 39:0 32 0] [27] 0 0
s 6.046068155 _1_ AGT  --- 102 cbr 8 [0 0 0 0] [energy 995.235307 ei 4.761 es 0.000 et 0.003 er 0.000] ------- [1:0 39:1 32 0] [57] 0 0
s 6.047566187 _4_ AGT  --- 103 cbr 8 [0 0 0 0] [energy 994.884854 ei 5.111 es 0.000 et 0.003 er 0.000] ------- [4:0 39:4 32 0] [17] 0 0
s 6.051700843 _0_ AGT  --- 104 cbr 8 [0 0 0 0] [energy 994.977449 ei 5.019 es 0.000 et 0.003 er 0.000] ------- [0:0 39:0 32 0] [28] 0 0
s 6.056068155 _1_ AGT  --- 105 cbr 8 [0 0 0 0] [energy 995.235307 ei 4.761 es 0.000 et 0.003 er 0.000] ------- [1:0 39:1 32 0] [58] 0 0
s 6.057566187 _4_ AGT  --- 106 cbr 8 [0 0 0 0] [energy 994.884854 ei 5.111 es 0.000 et 0.003 er 0.000] ------- [4:0 39:4 32 0] [18] 0 0
s 6.061700843 _0_ AGT  --- 107 cbr 8 [0 0 0 0] [energy 994.977449 ei 5.019 es 0.000 et 0.003 er 0.000] ------- [0:0 39:0 32 0] [29] 0 0
s 6.066068155 _1_ AGT  --- 108 cbr 8 [0 0 0 0] [energy 995.235307 ei 4.761 es 0.000 et 0.003 er 0.000] ------- [1:0 39:1 32 0] [59] 0 0
s 6.067566187 _4_ AGT  --- 109 cbr 8 [0 0 0 0] [energy 994.884854 ei 5.111 es 0.000 et 0.003 er 0.000] ------- [4:0 39:4 32 0] [19] 0 0
s 6.071700843 _0_ AGT  --- 110 cbr 8 [0 0 0 0] [energy 994.977449 ei 5.019 es 0.000 et 0.003 er 0.000] ------- [0:0 39:0 32 0] [30] 0 0
s 6.076068155 _1_ AGT  --- 111 cbr 8 [0 0 0 0] [energy 995.235307 ei 4.761 es 0.000 et 0.003 er 0.000] ------- [1:0 39:1 32 0] [60] 0 0
s 6.077566187 _4_ AGT  --- 112 cbr 8 [0 0 0 0] [energy 994.884854 ei 5.111 es 0.000 et 0.003 er 0.000] ------- [4:0 39:4 32 0] [20] 0 0
s 6.081700843 _0_ AGT  --- 113 cbr 8 [0 0 0 0] [energy 994.977449 ei 5.019 es 0.000 et 0.003 er 0.000] ------- [0:0 39:0 32 0] [31] 0 0
s 6.086068155 _1_ AGT  --- 114 cbr 8 [0 0 0 0] [energy 995.235307 ei 4.761 es 0.000 et 0.003 er 0.000] ------- [1:0 39:1 32 0] [61] 0 0
s 6.087566187 _4_ AGT  --- 115 cbr 8 [0 0 0 0] [energy 994.884854 ei 5.111 es 0.000 et 0.003 er 0.000] ------- [4:0 39:4 32 0] [21] 0 0
s 6.091700843 _0_ AGT  --- 116 cbr 8 [0 0 0 0] [energy 994.977449 ei 5.019 es 0.000 et 0.003 er 0.000] ------- [0:0 39:0 32 0] [32] 0 0
s 6.096068155 _1_ AGT  --- 117 cbr 8 [0 0 0 0] [energy 995.235307 ei 4.761 es 0.000 et 0.003 er 0.000] ------- [1:0 39:1 32 0] [62] 0 0
s 6.097566187 _4_ AGT  --- 118 cbr 8 [0 0 0 0] [energy 994.884854 ei 5.111 es 0.000 et 0.003 er 0.000] ------- [4:0 39:4 32 0] [22] 0 0
s 6.101700843 _0_ AGT  --- 119 cbr 8 [0 0 0 0] [energy 994.977449 ei 5.019 es 0.000 et 0.003 er 0.000] ------- [0:0 39:0 32 0] [33] 0 0
s 6.106068155 _1_ AGT  --- 120 cbr 8 [0 0 0 0] [energy 995.235307 ei 4.761 es 0.000 et 0.003 er 0.000] ------- [1:0 39:1 32 0] [63] 0 0
s 6.107566187 _4_ AGT  --- 121 cbr 8 [0 0 0 0] [energy 994.884854 ei 5.111 es 0.000 et 0.003 er 0.000] ------- [4:0 39:4 32 0] [23] 0 0
s 6.111700843 _0_ AGT  --- 122 cbr 8 [0 0 0 0] [energy 994.977449 ei 5.019 es 0.000 et 0.003 er 0.000] ------- [0:0 39:0 32 0] [34] 0 0
s 6.116068155 _1_ AGT  --- 123 cbr 8 [0 0 0 0] [energy 995.235307 ei 4.761 es 0.000 et 0.003 er 0.000] ------- [1:0 39:1 32 0] [64] 0 0
D 6.116068155 _1_ RTR  IFQ 0 cbr 28 [0 0 0 0] [energy 995.235307 ei 4.761 es 0.000 et 0.003 er 0.000] ------- [1:0 39:1 30 0] [0] 0 0
s 6.117566187 _4_ AGT  --- 124 cbr 8 [0 0 0 0] [energy 994.884854 ei 5.111 es 0.000 et 0.003 er 0.000] ------- [4:0 39:4 32 0] [24] 0 0
s 6.121700843 _0_ AGT  --- 125 cbr 8 [0 0 0 0] [energy 994.977449 ei 5.019 es 0.000 et 0.003 er 0.000] ------- [0:0 39:0 32 0] [35] 0 0
s 6.126068155 _1_ AGT  --- 126 cbr 8 [0 0 0 0] [energy 995.235307 ei 4.761 es 0.000 et 0.003 er 0.000] ------- [1:0 39:1 32 0] [65] 0 0
D 6.126068155 _1_ RTR  IFQ 1 cbr 28 [0 0 0 0] [energy 995.235307 ei 4.761 es 0.000 et 0.003 er 0.000] ------- [1:0 39:1 30 0] [1] 0 0
s 6.127566187 _4_ AGT  --- 127 cbr 8 [0 0 0 0] [energy 994.884854 ei 5.111 es 0.000 et 0.003 er 0.000] ------- [4:0 39:4 32 0] [25] 0 0
s 6.131700843 _0_ AGT  --- 128 cbr 8 [0 0 0 0] [energy 994.977449 ei 5.019 es 0.000 et 0.003 er 0.000] ------- [0:0 39:0 32 0] [36] 0 0
s 6.136068155 _1_ AGT  --- 129 cbr 8 [0 0 0 0] [energy 995.235307 ei 4.761 es 0.000 et 0.003 er 0.000] ------- [1:0 39:1 32 0] [66] 0 0
D 6.136068155 _1_ RTR  IFQ 2 cbr 28 [0 0 0 0] [energy 995.235307 ei 4.761 es 0.000 et 0.003 er 0.000] ------- [1:0 39:1 30 0] [2] 0 0
s 6.137566187 _4_ AGT  --- 130 cbr 8 [0 0 0 0] [energy 994.884854 ei 5.111 es 0.000 et 0.003 er 0.000] ------- [4:0 39:4 32 0] [26] 0 0
s 6.141700843 _0_ AGT  --- 131 cbr 8 [0 0 0 0] [energy 994.977449 ei 5.019 es 0.000 et 0.003 er 0.000] ------- [0:0 39:0 32 0] [37] 0 0
s 6.146068155 _1_ AGT  --- 132 cbr 8 [0 0 0 0] [energy 995.235307 ei 4.761 es 0.000 et 0.003 er 0.000] ------- [1:0 39:1 32 0] [67] 0 0
D 6.146068155 _1_ RTR  IFQ 3 cbr 28 [0 0 0 0] [energy 995.235307 ei 4.761 es 0.000 et 0.003 er 0.000] ------- [1:0 39:1 30 0] [3] 0 0
s 6.147566187 _4_ AGT  --- 133 cbr 8 [0 0 0 0] [energy 994.884854 ei 5.111 es 0.000 et 0.003 er 0.000] ------- [4:0 39:4 32 0] [27] 0 0
s 6.151700843 _0_ AGT  --- 134 cbr 8 [0 0 0 0] [energy 994.977449 ei 5.019 es 0.000 et 0.003 er 0.000] ------- [0:0 39:0 32 0] [38] 0 0
s 6.156068155 _1_ AGT  --- 135 cbr 8 [0 0 0 0] [energy 995.235307 ei 4.761 es 0.000 et 0.003 er 0.000] ------- [1:0 39:1 32 0] [68] 0 0
D 6.156068155 _1_ RTR  IFQ 4 cbr 28 [0 0 0 0] [energy 995.235307 ei 4.761 es 0.000 et 0.003 er 0.000] ------- [1:0 39:1 30 0] [4] 0 0
s 6.157566187 _4_ AGT  --- 136 cbr 8 [0 0 0 0] [energy 994.884854 ei 5.111 es 0.000 et 0.003 er 0.000] ------- [4:0 39:4 32 0] [28] 0 0
s 6.161700843 _0_ AGT  --- 137 cbr 8 [0 0 0 0] [energy 994.977449 ei 5.019 es 0.000 et 0.003 er 0.000] ------- [0:0 39:0 32 0] [39] 0 0
s 6.166068155 _1_ AGT  --- 138 cbr 8 [0 0 0 0] [energy 995.235307 ei 4.761 es 0.000 et 0.003 er 0.000] ------- [1:0 39:1 32 0] [69] 0 0
D 6.166068155 _1_ RTR  IFQ 5 cbr 28 [0 0 0 0] [energy 995.235307 ei 4.761 es 0.000 et 0.003 er 0.000] ------- [1:0 39:1 30 0] [5] 0 0
s 6.167566187 _4_ AGT  --- 139 cbr 8 [0 0 0 0] [energy 994.884854 ei 5.111 es 0.000 et 0.003 er 0.000] ------- [4:0 39:4 32 0] [29] 0 0
s 6.171700843 _0_ AGT  --- 140 cbr 8 [0 0 0 0] [energy 994.977449 ei 5.019 es 0.000 et 0.003 er 0.000] ------- [0:0 39:0 32 0] [40] 0 0
s 6.176068155 _1_ AGT  --- 141 cbr 8 [0 0 0 0] [energy 995.235307 ei 4.761 es 0.000 et 0.003 er 0.000] ------- [1:0 39:1 32 0] [70] 0 0
D 6.176068155 _1_ RTR  IFQ 6 cbr 28 [0 0 0 0] [energy 995.235307 ei 4.761 es 0.000 et 0.003 er 0.000] ------- [1:0 39:1 30 0] [6] 0 0
s 6.177486407 _2_ AGT  --- 142 cbr 8 [0 0 0 0] [energy 1000.000000 ei 0.000 es 0.000 et 0.000 er 0.000] ------- [2:0 39:2 32 0] [0] 0 0
s 6.177566187 _4_ AGT  --- 143 cbr 8 [0 0 0 0] [energy 994.884854 ei 5.111 es 0.000 et 0.003 er 0.000] ------- [4:0 39:4 32 0] [30] 0 0
s 6.179111407 _2_ MAC  --- 0 AODV 55 [0 ffffffff 2 800] [energy 994.627826 ei 5.372 es 0.000 et 0.000 er 0.000] ------- [2:255 -1:255 30 0] [0x2 1 1 [39 0] [2 4]] (REQUEST)
s 6.181700843 _0_ AGT  --- 144 cbr 8 [0 0 0 0] [energy 994.977449 ei 5.019 es 0.000 et 0.003 er 0.000] ------- [0:0 39:0 32 0] [41] 0 0
s 6.186068155 _1_ AGT  --- 145 cbr 8 [0 0 0 0] [energy 995.235307 ei 4.761 es 0.000 et 0.003 er 0.000] ------- [1:0 39:1 32 0] [71] 0 0
D 6.186068155 _1_ RTR  IFQ 7 cbr 28 [0 0 0 0] [energy 995.235307 ei 4.761 es 0.000 et 0.003 er 0.000] ------- [1:0 39:1 30 0] [7] 0 0
s 6.187486407 _2_ AGT  --- 146 cbr 8 [0 0 0 0] [energy 994.624381 ei 5.372 es 0.000 et 0.003 er 0.000] ------- [2:0 39:2 32 0] [1] 0 0
s 6.187566187 _4_ AGT  --- 147 cbr 8 [0 0 0 0] [energy 994.884854 ei 5.111 es 0.000 et 0.003 er 0.000] ------- [4:0 39:4 32 0] [31] 0 0
s 6.191700843 _0_ AGT  --- 148 cbr 8 [0 0 0 0] [energy 994.977449 ei 5.019 es 0.000 et 0.003 er 0.000] ------- [0:0 39:0 32 0] [42] 0 0
s 6.196068155 _1_ AGT  --- 149 cbr 8 [0 0 0 0] [energy 995.235307 ei 4.761 es 0.000 et 0.003 er 0.000] ------- [1:0 39:1 32 0] [72] 0 0
D 6.196068155 _1_ RTR  IFQ 8 cbr 28 [0 0 0 0] [energy 995.235307 ei 4.761 es 0.000 et 0.003 er 0.000] ------- [1:0 39:1 30 0] [8] 0 0
s 6.197486407 _2_ AGT  --- 150 cbr 8 [0 0 0 0] [energy 994.624381 ei 5.372 es 0.000 et 0.003 er 0.000] ------- [2:0 39:2 32 0] [2] 0 0
s 6.197566187 _4_ AGT  --- 151 cbr 8 [0 0 0 0] [energy 994.884854 ei 5.111 es 0.000 et 0.003 er 0.000] ------- [4:0 39:4 32 0] [32] 0 0
s 6.201700843 _0_ AGT  --- 152 cbr 8 [0 0 0 0] [energy 994.977449 ei 5.019 es 0.000 et 0.003 er 0.000] ------- [0:0 39:0 32 0] [43] 0 0
s 6.206068155 _1_ AGT  --- 153 cbr 8 [0 0 0 0] [energy 995.235307 ei 4.761 es 0.000 et 0.003 er 0.000] ------- [1:0 39:1 32 0] [73] 0 0
D 6.206068155 _1_ RTR  IFQ 9 cbr 28 [0 0 0 0] [energy 995.235307 ei 4.761 es 0.000 et 0.003 er 0.000] ------- [1:0 39:1 30 0] [9] 0 0
s 6.207486407 _2_ AGT  --- 154 cbr 8 [0 0 0 0] [energy 994.624381 ei 5.372 es 0.000 et 0.003 er 0.000] ------- [2:0 39:2 32 0] [3] 0 0
s 6.207566187 _4_ AGT  --- 155 cbr 8 [0 0 0 0] [energy 994.884854 ei 5.111 es 0.000 et 0.003 er 0.000] ------- [4:0 39:4 32 0] [33] 0 0
s 6.211700843 _0_ AGT  --- 156 cbr 8 [0 0 0 0] [energy 994.977449 ei 5.019 es 0.000 et 0.003 er 0.000] ------- [0:0 39:0 32 0] [44] 0 0
s 6.216068155 _1_ AGT  --- 157 cbr 8 [0 0 0 0] [energy 995.235307 ei 4.761 es 0.000 et 0.003 er 0.000] ------- [1:0 39:1 32 0] [74] 0 0
D 6.216068155 _1_ RTR  IFQ 10 cbr 28 [0 0 0 0] [energy 995.235307 ei 4.761 es 0.000 et 0.003 er 0.000] ------- [1:0 39:1 30 0] [10] 0 0
s 6.217486407 _2_ AGT  --- 158 cbr 8 [0 0 0 0] [energy 994.624381 ei 5.372 es 0.000 et 0.003 er 0.000] ------- [2:0 39:2 32 0] [4] 0 0
s 6.217566187 _4_ AGT  --- 159 cbr 8 [0 0 0 0] [energy 994.884854 ei 5.111 es 0.000 et 0.003 er 0.000] ------- [4:0 39:4 32 0] [34] 0 0
s 6.221700843 _0_ AGT  --- 160 cbr 8 [0 0 0 0] [energy 994.977449 ei 5.019 es 0.000 et 0.003 er 0.000] ------- [0:0 39:0 32 0] [45] 0 0
s 6.226068155 _1_ AGT  --- 161 cbr 8 [0 0 0 0] [energy 995.235307 ei 4.761 es 0.000 et 0.003 er 0.000] ------- [1:0 39:1 32 0] [75] 0 0
D 6.226068155 _1_ RTR  IFQ 11 cbr 28 [0 0 0 0] [energy 995.235307 ei 4.761 es 0.000 et 0.003 er 0.000] ------- [1:0 39:1 30 0] [11] 0 0
s 6.227486407 _2_ AGT  --- 162 cbr 8 [0 0 0 0] [energy 994.624381 ei 5.372 es 0.000 et 0.003 er 0.000] ------- [2:0 39:2 32 0] [5] 0 0
s 6.227566187 _4_ AGT  --- 163 cbr 8 [0 0 0 0] [energy 994.884854 ei 5.111 es 0.000 et 0.003 er 0.000] ------- [4:0 39:4 32 0] [35] 0 0
s 6.231700843 _0_ AGT  --- 164 cbr 8 [0 0 0 0] [energy 994.977449 ei 5.019 es 0.000 et 0.003 er 0.000] ------- [0:0 39:0 32 0] [46] 0 0
s 6.236068155 _1_ AGT  --- 165 cbr 8 [0 0 0 0] [energy 995.235307 ei 4.761 es 0.000 et 0.003 er 0.000] ------- [1:0 39:1 32 0] [76] 0 0
D 6.236068155 _1_ RTR  IFQ 12 cbr 28 [0 0 0 0] [energy 995.235307 ei 4.761 es 0.000 et 0.003 er 0.000] ------- [1:0 39:1 30 0] [12] 0 0
s 6.237486407 _2_ AGT  --- 166 cbr 8 [0 0 0 0] [energy 994.624381 ei 5.372 es 0.000 et 0.003 er 0.000] ------- [2:0 39:2 32 0] [6] 0 0
s 6.237566187 _4_ AGT  --- 167 cbr 8 [0 0 0 0] [energy 994.884854 ei 5.111 es 0.000 et 0.003 er 0.000] ------- [4:0 39:4 32 0] [36] 0 0
s 6.241700843 _0_ AGT  --- 168 cbr 8 [0 0 0 0] [energy 994.977449 ei 5.019 es 0.000 et 0.003 er 0.000] ------- [0:0 39:0 32 0] [47] 0 0
s 6.246068155 _1_ AGT  --- 169 cbr 8 [0 0 0 0] [energy 995.235307 ei 4.761 es 0.000 et 0.003 er 0.000] ------- [1:0 39:1 32 0] [77] 0 0
D 6.246068155 _1_ RTR  IFQ 13 cbr 28 [0 0 0 0] [energy 995.235307 ei 4.761 es 0.000 et 0.003 er 0.000] ------- [1:0 39:1 30 0] [13] 0 0
s 6.247486407 _2_ AGT  --- 170 cbr 8 [0 0 0 0] [energy 994.624381 ei 5.372 es 0.000 et 0.003 er 0.000] ------- [2:0 39:2 32 0] [7] 0 0
s 6.247566187 _4_ AGT  --- 171 cbr 8 [0 0 0 0] [energy 994.884854 ei 5.111 es 0.000 et 0.003 er 0.000] ------- [4:0 39:4 32 0] [37] 0 0
s 6.251700843 _0_ AGT  --- 172 cbr 8 [0 0 0 0] [energy 994.977449 ei 5.019 es 0.000 et 0.003 er 0.000] ------- [0:0 39:0 32 0] [48] 0 0
s 6.256068155 _1_ AGT  --- 173 cbr 8 [0 0 0 0] [energy 995.235307 ei 4.761 es 0.000 et 0.003 er 0.000] ------- [1:0 39:1 32 0] [78] 0 0
D 6.256068155 _1_ RTR  IFQ 14 cbr 28 [0 0 0 0] [energy 995.235307 ei 4.761 es 0.000 et 0.003 er 0.000] ------- [1:0 39:1 30 0] [14] 0 0
s 6.257486407 _2_ AGT  --- 174 cbr 8 [0 0 0 0] [energy 994.624381 ei 5.372 es 0.000 et 0.003 er 0.000] ------- [2:0 39:2 32 0] [8] 0 0
s 6.257566187 _4_ AGT  --- 175 cbr 8 [0 0 0 0] [energy 994.884854 ei 5.111 es 0.000 et 0.003 er 0.000] ------- [4:0 39:4 32 0] [38] 0 0
s 6.261700843 _0_ AGT  --- 176 cbr 8 [0 0 0 0] [energy 994.977449 ei 5.019 es 0.000 et 0.003 er 0.000] ------- [0:0 39:0 32 0] [49] 0 0
s 6.266068155 _1_ AGT  --- 177 cbr 8 [0 0 0 0] [energy 995.235307 ei 4.761 es 0.000 et 0.003 er 0.000] ------- [1:0 39:1 32 0] [79] 0 0
D 6.266068155 _1_ RTR  IFQ 15 cbr 28 [0 0 0 0] [energy 995.235307 ei 4.761 es 0.000 et 0.003 er 0.000] ------- [1:0 39:1 30 0] [15] 0 0
s 6.267486407 _2_ AGT  --- 178 cbr 8 [0 0 0 0] [energy 994.624381 ei 5.372 es 0.000 et 0.003 er 0.000] ------- [2:0 39:2 32 0] [9] 0 0
s 6.267566187 _4_ AGT  --- 179 cbr 8 [0 0 0 0] [energy 994.884854 ei 5.111 es 0.000 et 0.003 er 0.000] ------- [4:0 39:4 32 0] [39] 0 0
s 6.270143884 _7_ AGT  --- 180 cbr 8 [0 0 0 0] [energy 1000.000000 ei 0.000 es 0.000 et 0.000 er 0.000] ------- [7:0 39:7 32 0] [0] 0 0
s 6.270808884 _7_ MAC  --- 0 AODV 55 [0 ffffffff 7 800] [energy 994.548104 ei 5.451 es 0.000 et 0.000 er 0.000] ------- [7:255 -1:255 30 0] [0x2 1 1 [39 0] [7 4]] (REQUEST)
s 6.271700843 _0_ AGT  --- 181 cbr 8 [0 0 0 0] [energy 994.977449 ei 5.019 es 0.000 et 0.003 er 0.000] ------- [0:0 39:0 32 0] [50] 0 0
s 6.276068155 _1_ AGT  --- 182 cbr 8 [0 0 0 0] [energy 995.235307 ei 4.761 es 0.000 et 0.003 er 0.000] ------- [1:0 39:1 32 0] [80] 0 0
D 6.276068155 _1_ RTR  IFQ 16 cbr 28 [0 0 0 0] [energy 995.235307 ei 4.761 es 0.000 et 0.003 er 0.000] ------- [1:0 39:1 30 0] [16] 0 0
s 6.277486407 _2_ AGT  --- 183 cbr 8 [0 0 0 0] [energy 994.624381 ei 5.372 es 0.000 et 0.003 er 0.000] ------- [2:0 39:2 32 0] [10] 0 0
s 6.277566187 _4_ AGT  --- 184 cbr 8 [0 0 0 0] [energy 994.884854 ei 5.111 es 0.000 et 0.003 er 0.000] ------- [4:0 39:4 32 0] [40] 0 0
s 6.280143884 _7_ AGT  --- 185 cbr 8 [0 0 0 0] [energy 994.544659 ei 5.452 es 0.000 et 0.003 er 0.000] ------- [7:0 39:7 32 0] [1] 0 0
s 6.281700843 _0_ AGT  --- 186 cbr 8 [0 0 0 0] [energy 994.977449 ei 5.019 es 0.000 et 0.003 er 0.000] ------- [0:0 39:0 32 0] [51] 0 0
s 6.286068155 _1_ AGT  --- 187 cbr 8 [0 0 0 0] [energy 995.235307 ei 4.761 es 0.000 et 0.003 er 0.000] ------- [1:0 39:1 32 0] [81] 0 0
D 6.286068155 _1_ RTR  IFQ 17 cbr 28 [0 0 0 0] [energy 995.235307 ei 4.761 es 0.000 et 0.003 er 0.000] ------- [1:0 39:1 30 0] [17] 0 0
s 6.287486407 _2_ AGT  --- 188 cbr 8 [0 0 0 0] [energy 994.624381 ei 5.372 es 0.000 et 0.003 er 0.000] ------- [2:0 39:2 32 0] [11] 0 0
s 6.287566187 _4_ AGT  --- 189 cbr 8 [0 0 0 0] [energy 994.884854 ei 5.111 es 0.000 et 0.003 er 0.000] ------- [4:0 39:4 32 0] [41] 0 0
s 6.290143884 _7_ AGT  --- 190 cbr 8 [0 0 0 0] [energy 994.544659 ei 5.452 es 0.000 et 0.003 er 0.000] ------- [7:0 39:7 32 0] [2] 0 0
s 6.291700843 _0_ AGT  --- 191 cbr 8 [0 0 0 0] [energy 994.977449 ei 5.019 es 0.000 et 0.003 er 0.000] ------- [0:0 39:0 32 0] [52] 0 0
s 6.296068155 _1_ AGT  --- 192 cbr 8 [0 0 0 0] [energy 995.235307 ei 4.761 es 0.000 et 0.003 er 0.000] ------- [1:0 39:1 32 0] [82] 0 0
D 6.296068155 _1_ RTR  IFQ 18 cbr 28 [0 0 0 0] [energy 995.235307 ei 4.761 es 0.000 et 0.003 er 0.000] ------- [1:0 39:1 30 0] [18] 0 0
s 6.297486407 _2_ AGT  --- 193 cbr 8 [0 0 0 0] [energy 994.624381 ei 5.372 es 0.000 et 0.003 er 0.000] ------- [2:0 39:2 32 0] [12] 0 0
s 6.297566187 _4_ AGT  --- 194 cbr 8 [0 0 0 0] [energy 994.884854 ei 5.111 es 0.000 et 0.003 er 0.000] ------- [4:0 39:4 32 0] [42] 0 0
s 6.300143884 _7_ AGT  --- 195 cbr 8 [0 0 0 0] [energy 994.544659 ei 5.452 es 0.000 et 0.003 er 0.000] ------- [7:0 39:7 32 0] [3] 0 0