s 0.010796804 _0_ MAC  --- 0 message 90 [0 ffffffff 0 800] [energy 1000.000000 ei 0.000 es 0.000 et 0.000 er 0.000] ------- [0:255 -1:255 32 0] 
N -t 0.010797 -n 1 -e 999.989490
N -t 0.010797 -n 2 -e 999.989490
N -t 0.010797 -n 3 -e 999.989490
N -t 0.010797 -n 4 -e 999.989490
N -t 0.010797 -n 5 -e 999.989490
N -t 0.010797 -n 6 -e 999.989490
N -t 0.010797 -n 7 -e 999.989490
N -t 0.010797 -n 8 -e 999.989490
N -t 0.010797 -n 9 -e 999.989490
N -t 0.010797 -n 10 -e 999.989490
N -t 0.010797 -n 11 -e 999.989490
N -t 0.010797 -n 12 -e 999.989490
N -t 0.010797 -n 13 -e 999.989490
N -t 0.010797 -n 14 -e 999.989490
N -t 0.010797 -n 15 -e 999.989490
N -t 0.010797 -n 16 -e 999.989490
N -t 0.010797 -n 17 -e 999.989490
N -t 0.010797 -n 18 -e 999.989490
N -t 0.010797 -n 19 -e 999.989490
N -t 0.010797 -n 20 -e 999.989490
N -t 0.010797 -n 21 -e 999.989490
N -t 0.010797 -n 22 -e 999.989490
N -t 0.010797 -n 23 -e 999.989490
N -t 0.010797 -n 24 -e 999.989490
N -t 0.010797 -n 25 -e 999.989490
N -t 0.010797 -n 26 -e 999.989490
N -t 0.010797 -n 27 -e 999.989490
N -t 0.010797 -n 28 -e 999.989490
N -t 0.010797 -n 29 -e 999.989490
N -t 0.010797 -n 30 -e 999.989490
N -t 0.010797 -n 31 -e 999.989490
N -t 0.010797 -n 32 -e 999.989490
N -t 0.010797 -n 33 -e 999.989490
N -t 0.010797 -n 34 -e 999.989490
N -t 0.010797 -n 35 -e 999.989490
N -t 0.010797 -n 36 -e 999.989490
N -t 0.010797 -n 37 -e 999.989490
N -t 0.010797 -n 38 -e 999.989490
N -t 0.010797 -n 39 -e 999.989490
r 0.011516804 _1_ MAC  --- 0 message 32 [0 ffffffff 0 800] [energy 999.989490 ei 0.009 es 0.000 et 0.000 er 0.001] ------- [0:255 -1:255 32 0] 
r 0.011516804 _2_ MAC  --- 0 message 32 [0 ffffffff 0 800] [energy 999.989490 ei 0.009 es 0.000 et 0.000 er 0.001] ------- [0:255 -1:255 32 0] 
r 0.011516804 _3_ MAC  --- 0 message 32 [0 ffffffff 0 800] [energy 999.989490 ei 0.009 es 0.000 et 0.000 er 0.001] ------- [0:255 -1:255 32 0] 
r 0.011516804 _4_ MAC  --- 0 message 32 [0 ffffffff 0 800] [energy 999.989490 ei 0.009 es 0.000 et 0.000 er 0.001] ------- [0:255 -1:255 32 0] 
r 0.011516804 _5_ MAC  --- 0 message 32 [0 ffffffff 0 800] [energy 999.989490 ei 0.009 es 0.000 et 0.000 er 0.001] ------- [0:255 -1:255 32 0] 
r 0.011516804 _6_ MAC  --- 0 message 32 [0 ffffffff 0 800] [energy 999.989490 ei 0.009 es 0.000 et 0.000 er 0.001] ------- [0:255 -1:255 32 0] 
r 0.011516804 _7_ MAC  --- 0 message 32 [0 ffffffff 0 800] [energy 999.989490 ei 0.009 es 0.000 et 0.000 er 0.001] ------- [0:255 -1:255 32 0] 
r 0.011516811 _8_ MAC  --- 0 message 32 [0 ffffffff 0 800] [energy 999.989490 ei 0.009 es 0.000 et 0.000 er 0.001] ------- [0:255 -1:255 32 0] 
r 0.011516811 _9_ MAC  --- 0 message 32 [0 ffffffff 0 800] [energy 999.989490 ei 0.009 es 0.000 et 0.000 er 0.001] ------- [0:255 -1:255 32 0] 
r 0.011516811 _10_ MAC  --- 0 message 32 [0 ffffffff 0 800] [energy 999.989490 ei 0.009 es 0.000 et 0.000 er 0.001] ------- [0:255 -1:255 32 0] 
r 0.011516811 _11_ MAC  --- 0 message 32 [0 ffffffff 0 800] [energy 999.989490 ei 0.009 es 0.000 et 0.000 er 0.001] ------- [0:255 -1:255 32 0] 
r 0.011516811 _12_ MAC  --- 0 message 32 [0 ffffffff 0 800] [energy 999.989490 ei 0.009 es 0.000 et 0.000 er 0.001] ------- [0:255 -1:255 32 0] 
r 0.011516811 _13_ MAC  --- 0 message 32 [0 ffffffff 0 800] [energy 999.989490 ei 0.009 es 0.000 et 0.000 er 0.001] ------- [0:255 -1:255 32 0] 
r 0.011516811 _14_ MAC  --- 0 message 32 [0 ffffffff 0 800] [energy 999.989490 ei 0.009 es 0.000 et 0.000 er 0.001] ------- [0:255 -1:255 32 0] 
r 0.011516811 _15_ MAC  --- 0 message 32 [0 ffffffff 0 800] [energy 999.989490 ei 0.009 es 0.000 et 0.000 er 0.001] ------- [0:255 -1:255 32 0] 
r 0.011516817 _16_ MAC  --- 0 message 32 [0 ffffffff 0 800] [energy 999.989490 ei 0.009 es 0.000 et 0.000 er 0.001] ------- [0:255 -1:255 32 0] 
r 0.011516817 _17_ MAC  --- 0 message 32 [0 ffffffff 0 800] [energy 999.989490 ei 0.009 es 0.000 et 0.000 er 0.001] ------- [0:255 -1:255 32 0] 
r 0.011516817 _18_ MAC  --- 0 message 32 [0 ffffffff 0 800] [energy 999.989490 ei 0.009 es 0.000 et 0.000 er 0.001] ------- [0:255 -1:255 32 0] 
r 0.011516817 _19_ MAC  --- 0 message 32 [0 ffffffff 0 800] [energy 999.989490 ei 0.009 es 0.000 et 0.000 er 0.001] ------- [0:255 -1:255 32 0] 
r 0.011516817 _20_ MAC  --- 0 message 32 [0 ffffffff 0 800] [energy 999.989490 ei 0.009 es 0.000 et 0.000 er 0.001] ------- [0:255 -1:255 32 0] 
r 0.011516817 _21_ MAC  --- 0 message 32 [0 ffffffff 0 800] [energy 999.989490 ei 0.009 es 0.000 et 0.000 er 0.001] ------- [0:255 -1:255 32 0] 
r 0.011516817 _22_ MAC  --- 0 message 32 [0 ffffffff 0 800] [energy 999.989490 ei 0.009 es 0.000 et 0.000 er 0.001] ------- [0:255 -1:255 32 0] 
r 0.011516817 _23_ MAC  --- 0 message 32 [0 ffffffff 0 800] [energy 999.989490 ei 0.009 es 0.000 et 0.000 er 0.001] ------- [0:255 -1:255 32 0] 
r 0.011516824 _24_ MAC  --- 0 message 32 [0 ffffffff 0 800] [energy 999.989490 ei 0.009 es 0.000 et 0.000 er 0.001] ------- [0:255 -1:255 32 0] 
r 0.011516824 _25_ MAC  --- 0 message 32 [0 ffffffff 0 800] [energy 999.989490 ei 0.009 es 0.000 et 0.000 er 0.001] ------- [0:255 -1:255 32 0] 
r 0.011516824 _26_ MAC  --- 0 message 32 [0 ffffffff 0 800] [energy 999.989490 ei 0.009 es 0.000 et 0.000 er 0.001] ------- [0:255 -1:255 32 0] 
r 0.011516824 _27_ MAC  --- 0 message 32 [0 ffffffff 0 800] [energy 999.989490 ei 0.009 es 0.000 et 0.000 er 0.001] ------- [0:255 -1:255 32 0] 
r 0.011516824 _28_ MAC  --- 0 message 32 [0 ffffffff 0 800] [energy 999.989490 ei 0.009 es 0.000 et 0.000 er 0.001] ------- [0:255 -1:255 32 0] 
r 0.011516824 _29_ MAC  --- 0 message 32 [0 ffffffff 0 800] [energy 999.989490 ei 0.009 es 0.000 et 0.000 er 0.001] ------- [0:255 -1:255 32 0] 
r 0.011516824 _30_ MAC  --- 0 message 32 [0 ffffffff 0 800] [energy 999.989490 ei 0.009 es 0.000 et 0.000 er 0.001] ------- [0:255 -1:255 32 0] 
r 0.011516824 _31_ MAC  --- 0 message 32 [0 ffffffff 0 800] [energy 999.989490 ei 0.009 es 0.000 et 0.000 er 0.001] ------- [0:255 -1:255 32 0] 
r 0.011516831 _32_ MAC  --- 0 message 32 [0 ffffffff 0 800] [energy 999.989490 ei 0.009 es 0.000 et 0.000 er 0.001] ------- [0:255 -1:255 32 0] 
r 0.011516831 _33_ MAC  --- 0 message 32 [0 ffffffff 0 800] [energy 999.989490 ei 0.009 es 0.000 et 0.000 er 0.001] ------- [0:255 -1:255 32 0] 
r 0.011516831 _34_ MAC  --- 0 message 32 [0 ffffffff 0 800] [energy 999.989490 ei 0.009 es 0.000 et 0.000 er 0.001] ------- [0:255 -1:255 32 0] 
r 0.011516831 _35_ MAC  --- 0 message 32 [0 ffffffff 0 800] [energy 999.989490 ei 0.009 es 0.000 et 0.000 er 0.001] ------- [0:255 -1:255 32 0] 
r 0.011516831 _36_ MAC  --- 0 message 32 [0 ffffffff 0 800] [energy 999.989490 ei 0.009 es 0.000 et 0.000 er 0.001] ------- [0:255 -1:255 32 0] 
r 0.011516831 _37_ MAC  --- 0 message 32 [0 ffffffff 0 800] [energy 999.989490 ei 0.009 es 0.000 et 0.000 er 0.001] ------- [0:255 -1:255 32 0] 
r 0.011516831 _38_ MAC  --- 0 message 32 [0 ffffffff 0 800] [energy 999.989490 ei 0.009 es 0.000 et 0.000 er 0.001] ------- [0:255 -1:255 32 0] 
r 0.011516831 _39_ MAC  --- 0 message 32 [0 ffffffff 0 800] [energy 999.989490 ei 0.009 es 0.000 et 0.000 er 0.001] ------- [0:255 -1:255 32 0] 
s 0.029092405 _2_ MAC  --- 1 message 90 [0 ffffffff 2 800] [energy 999.989490 ei 0.009 es 0.000 et 0.000 er 0.001] ------- [2:255 -1:255 32 0] 
N -t 0.029092 -n 1 -e 999.973086
N -t 0.029092 -n 0 -e 999.973000
N -t 0.029092 -n 3 -e 999.973086
N -t 0.029092 -n 4 -e 999.973086
N -t 0.029092 -n 5 -e 999.973086
N -t 0.029092 -n 6 -e 999.973086
N -t 0.029092 -n 7 -e 999.973086
N -t 0.029092 -n 8 -e 999.973086
N -t 0.029092 -n 9 -e 999.973086
N -t 0.029092 -n 10 -e 999.973086
N -t 0.029092 -n 11 -e 999.973086
N -t 0.029092 -n 12 -e 999.973086
N -t 0.029092 -n 13 -e 999.973086
N -t 0.029092 -n 14 -e 999.973086
N -t 0.029092 -n 15 -e 999.973086
N -t 0.029092 -n 16 -e 999.973086
N -t 0.029092 -n 17 -e 999.973086
N -t 0.029092 -n 18 -e 999.973086
N -t 0.029092 -n 19 -e 999.973086
N -t 0.029092 -n 20 -e 999.973086
N -t 0.029092 -n 21 -e 999.973086
N -t 0.029092 -n 22 -e 999.973086
N -t 0.029092 -n 23 -e 999.973086
N -t 0.029092 -n 24 -e 999.973086
N -t 0.029092 -n 25 -e 999.973086
N -t 0.029092 -n 26 -e 999.973086
N -t 0.029092 -n 27 -e 999.973086
N -t 0.029092 -n 28 -e 999.973086
N -t 0.029092 -n 29 -e 999.973086
N -t 0.029092 -n 30 -e 999.973086
N -t 0.029092 -n 31 -e 999.973086
N -t 0.029092 -n 32 -e 999.973086
N -t 0.029092 -n 33 -e 999.973086
N -t 0.029092 -n 34 -e 999.973086
N -t 0.029092 -n 35 -e 999.973086
N -t 0.029092 -n 36 -e 999.973086
N -t 0.029092 -n 37 -e 999.973086
N -t 0.029092 -n 38 -e 999.973086
N -t 0.029092 -n 39 -e 999.973086
r 0.029812405 _1_ MAC  --- 1 message 32 [0 ffffffff 2 800] [energy 999.973086 ei 0.025 es 0.000 et 0.000 er 0.002] ------- [2:255 -1:255 32 0] 
r 0.029812405 _0_ MAC  --- 1 message 32 [0 ffffffff 2 800] [energy 999.973000 ei 0.025 es 0.000 et 0.001 er 0.001] ------- [2:255 -1:255 32 0] 
r 0.029812405 _3_ MAC  --- 1 message 32 [0 ffffffff 2 800] [energy 999.973086 ei 0.025 es 0.000 et 0.000 er 0.002] ------- [2:255 -1:255 32 0] 
r 0.029812405 _4_ MAC  --- 1 message 32 [0 ffffffff 2 800] [energy 999.973086 ei 0.025 es 0.000 et 0.000 er 0.002] ------- [2:255 -1:255 32 0] 
r 0.029812405 _5_ MAC  --- 1 message 32 [0 ffffffff 2 800] [energy 999.973086 ei 0.025 es 0.000 et 0.000 er 0.002] ------- [2:255 -1:255 32 0] 
r 0.029812405 _6_ MAC  --- 1 message 32 [0 ffffffff 2 800] [energy 999.973086 ei 0.025 es 0.000 et 0.000 er 0.002] ------- [2:255 -1:255 32 0] 
r 0.029812405 _7_ MAC  --- 1 message 32 [0 ffffffff 2 800] [energy 999.973086 ei 0.025 es 0.000 et 0.000 er 0.002] ------- [2:255 -1:255 32 0] 
r 0.029812411 _8_ MAC  --- 1 message 32 [0 ffffffff 2 800] [energy 999.973086 ei 0.025 es 0.000 et 0.000 er 0.002] ------- [2:255 -1:255 32 0] 
r 0.029812411 _9_ MAC  --- 1 message 32 [0 ffffffff 2 800] [energy 999.973086 ei 0.025 es 0.000 et 0.000 er 0.002] ------- [2:255 -1:255 32 0] 
r 0.029812411 _10_ MAC  --- 1 message 32 [0 ffffffff 2 800] [energy 999.973086 ei 0.025 es 0.000 et 0.000 er 0.002] ------- [2:255 -1:255 32 0] 
r 0.029812411 _11_ MAC  --- 1 message 32 [0 ffffffff 2 800] [energy 999.973086 ei 0.025 es 0.000 et 0.000 er 0.002] ------- [2:255 -1:255 32 0] 
r 0.029812411 _12_ MAC  --- 1 message 32 [0 ffffffff 2 800] [energy 999.973086 ei 0.025 es 0.000 et 0.000 er 0.002] ------- [2:255 -1:255 32 0] 
r 0.029812411 _13_ MAC  --- 1 message 32 [0 ffffffff 2 800] [energy 999.973086 ei 0.025 es 0.000 et 0.000 er 0.002] ------- [2:255 -1:255 32 0] 
r 0.029812411 _14_ MAC  --- 1 message 32 [0 ffffffff 2 800] [energy 999.973086 ei 0.025 es 0.000 et 0.000 er 0.002] ------- [2:255 -1:255 32 0] 
r 0.029812411 _15_ MAC  --- 1 message 32 [0 ffffffff 2 800] [energy 999.973086 ei 0.025 es 0.000 et 0.000 er 0.002] ------- [2:255 -1:255 32 0] 
r 0.029812418 _16_ MAC  --- 1 message 32 [0 ffffffff 2 800] [energy 999.973086 ei 0.025 es 0.000 et 0.000 er 0.002] ------- [2:255 -1:255 32 0] 
r 0.029812418 _17_ MAC  --- 1 message 32 [0 ffffffff 2 800] [energy 999.973086 ei 0.025 es 0.000 et 0.000 er 0.002] ------- [2:255 -1:255 32 0] 
r 0.029812418 _18_ MAC  --- 1 message 32 [0 ffffffff 2 800] [energy 999.973086 ei 0.025 es 0.000 et 0.000 er 0.002] ------- [2:255 -1:255 32 0] 
r 0.029812418 _19_ MAC  --- 1 message 32 [0 ffffffff 2 800] [energy 999.973086 ei 0.025 es 0.000 et 0.000 er 0.002] ------- [2:255 -1:255 32 0] 
r 0.029812418 _20_ MAC  --- 1 message 32 [0 ffffffff 2 800] [energy 999.973086 ei 0.025 es 0.000 et 0.000 er 0.002] ------- [2:255 -1:255 32 0] 
r 0.029812418 _21_ MAC  --- 1 message 32 [0 ffffffff 2 800] [energy 999.973086 ei 0.025 es 0.000 et 0.000 er 0.002] ------- [2:255 -1:255 32 0] 
r 0.029812418 _22_ MAC  --- 1 message 32 [0 ffffffff 2 800] [energy 999.973086 ei 0.025 es 0.000 et 0.000 er 0.002] ------- [2:255 -1:255 32 0] 
r 0.029812418 _23_ MAC  --- 1 message 32 [0 ffffffff 2 800] [energy 999.973086 ei 0.025 es 0.000 et 0.000 er 0.002] ------- [2:255 -1:255 32 0] 
r 0.029812425 _24_ MAC  --- 1 message 32 [0 ffffffff 2 800] [energy 999.973086 ei 0.025 es 0.000 et 0.000 er 0.002] ------- [2:255 -1:255 32 0] 
r 0.029812425 _25_ MAC  --- 1 message 32 [0 ffffffff 2 800] [energy 999.973086 ei 0.025 es 0.000 et 0.000 er 0.002] ------- [2:255 -1:255 32 0] 
r 0.029812425 _26_ MAC  --- 1 message 32 [0 ffffffff 2 800] [energy 999.973086 ei 0.025 es 0.000 et 0.000 er 0.002] ------- [2:255 -1:255 32 0] 
r 0.029812425 _27_ MAC  --- 1 message 32 [0 ffffffff 2 800] [energy 999.973086 ei 0.025 es 0.000 et 0.000 er 0.002] ------- [2:255 -1:255 32 0] 
r 0.029812425 _28_ MAC  --- 1 message 32 [0 ffffffff 2 800] [energy 999.973086 ei 0.025 es 0.000 et 0.000 er 0.002] ------- [2:255 -1:255 32 0] 
r 0.029812425 _29_ MAC  --- 1 message 32 [0 ffffffff 2 800] [energy 999.973086 ei 0.025 es 0.000 et 0.000 er 0.002] ------- [2:255 -1:255 32 0] 
r 0.029812425 _30_ MAC  --- 1 message 32 [0 ffffffff 2 800] [energy 999.973086 ei 0.025 es 0.000 et 0.000 er 0.002] ------- [2:255 -1:255 32 0] 
r 0.029812425 _31_ MAC  --- 1 message 32 [0 ffffffff 2 800] [energy 999.973086 ei 0.025 es 0.000 et 0.000 er 0.002] ------- [2:255 -1:255 32 0] 
r 0.029812431 _32_ MAC  --- 1 message 32 [0 ffffffff 2 800] [energy 999.973086 ei 0.025 es 0.000 et 0.000 er 0.002] ------- [2:255 -1:255 32 0] 
r 0.029812431 _33_ MAC  --- 1 message 32 [0 ffffffff 2 800] [energy 999.973086 ei 0.025 es 0.000 et 0.000 er 0.002] ------- [2:255 -1:255 32 0] 
r 0.029812431 _34_ MAC  --- 1 message 32 [0 ffffffff 2 800] [energy 999.973086 ei 0.025 es 0.000 et 0.000 er 0.002] ------- [2:255 -1:255 32 0] 
r 0.029812431 _35_ MAC  --- 1 message 32 [0 ffffffff 2 800] [energy 999.973086 ei 0.025 es 0.000 et 0.000 er 0.002] ------- [2:255 -1:255 32 0] 
r 0.029812431 _36_ MAC  --- 1 message 32 [0 ffffffff 2 800] [energy 999.973086 ei 0.025 es 0.000 et 0.000 er 0.002] ------- [2:255 -1:255 32 0] 
r 0.029812431 _37_ MAC  --- 1 message 32 [0 ffffffff 2 800] [energy 999.973086 ei 0.025 es 0.000 et 0.000 er 0.002] ------- [2:255 -1:255 32 0] 
r 0.029812431 _38_ MAC  --- 1 message 32 [0 ffffffff 2 800] [energy 999.973086 ei 0.025 es 0.000 et 0.000 er 0.002] ------- [2:255 -1:255 32 0] 
r 0.029812431 _39_ MAC  --- 1 message 32 [0 ffffffff 2 800] [energy 999.973086 ei 0.025 es 0.000 et 0.000 er 0.002] ------- [2:255 -1:255 32 0] 
s 0.036151329 _26_ AGT  --- 2 cbr 500 [0 0 0 0] [energy 999.973086 ei 0.025 es 0.000 et 0.000 er 0.002] ------- [26:0 34:0 32 0] [0] 0 0
s 0.040151329 _26_ AGT  --- 3 cbr 500 [0 0 0 0] [energy 999.973086 ei 0.025 es 0.000 et 0.000 er 0.002] ------- [26:0 34:0 32 0] [1] 0 0
s 0.044151329 _26_ AGT  --- 4 cbr 500 [0 0 0 0] [energy 999.973086 ei 0.025 es 0.000 et 0.000 er 0.002] ------- [26:0 34:0 32 0] [2] 0 0
s 0.048151329 _26_ AGT  --- 5 cbr 500 [0 0 0 0] [energy 999.973086 ei 0.025 es 0.000 et 0.000 er 0.002] ------- [26:0 34:0 32 0] [3] 0 0
s 0.052151329 _26_ AGT  --- 6 cbr 500 [0 0 0 0] [energy 999.973086 ei 0.025 es 0.000 et 0.000 er 0.002] ------- [26:0 34:0 32 0] [4] 0 0
s 0.056151329 _26_ AGT  --- 7 cbr 500 [0 0 0 0] [energy 999.973086 ei 0.025 es 0.000 et 0.000 er 0.002] ------- [26:0 34:0 32 0] [5] 0 0
D 0.056151329 _26_ RTR  IFQ 2 cbr 520 [0 0 0 0] [energy 999.973086 ei 0.025 es 0.000 et 0.000 er 0.002] ------- [26:0 34:0 32 0] [0] 0 0
s 0.060151329 _26_ AGT  --- 8 cbr 500 [0 0 0 0] [energy 999.973086 ei 0.025 es 0.000 et 0.000 er 0.002] ------- [26:0 34:0 32 0] [6] 0 0
D 0.060151329 _26_ RTR  IFQ 3 cbr 520 [0 0 0 0] [energy 999.973086 ei 0.025 es 0.000 et 0.000 er 0.002] ------- [26:0 34:0 32 0] [1] 0 0
s 0.064151329 _26_ AGT  --- 9 cbr 500 [0 0 0 0] [energy 999.973086 ei 0.025 es 0.000 et 0.000 er 0.002] ------- [26:0 34:0 32 0] [7] 0 0
D 0.064151329 _26_ RTR  IFQ 4 cbr 520 [0 0 0 0] [energy 999.973086 ei 0.025 es 0.000 et 0.000 er 0.002] ------- [26:0 34:0 32 0] [2] 0 0
s 0.068151329 _26_ AGT  --- 10 cbr 500 [0 0 0 0] [energy 999.973086 ei 0.025 es 0.000 et 0.000 er 0.002] ------- [26:0 34:0 32 0] [8] 0 0
D 0.068151329 _26_ RTR  IFQ 5 cbr 520 [0 0 0 0] [energy 999.973086 ei 0.025 es 0.000 et 0.000 er 0.002] ------- [26:0 34:0 32 0] [3] 0 0
s 0.072151329 _26_ AGT  --- 11 cbr 500 [0 0 0 0] [energy 999.973086 ei 0.025 es 0.000 et 0.000 er 0.002] ------- [26:0 34:0 32 0] [9] 0 0
D 0.072151329 _26_ RTR  IFQ 6 cbr 520 [0 0 0 0] [energy 999.973086 ei 0.025 es 0.000 et 0.000 er 0.002] ------- [26:0 34:0 32 0] [4] 0 0
s 0.076151329 _26_ AGT  --- 12 cbr 500 [0 0 0 0] [energy 999.973086 ei 0.025 es 0.000 et 0.000 er 0.002] ------- [26:0 34:0 32 0] [10] 0 0
D 0.076151329 _26_ RTR  IFQ 7 cbr 520 [0 0 0 0] [energy 999.973086 ei 0.025 es 0.000 et 0.000 er 0.002] ------- [26:0 34:0 32 0] [5] 0 0
s 0.080151329 _26_ AGT  --- 13 cbr 500 [0 0 0 0] [energy 999.973086 ei 0.025 es 0.000 et 0.000 er 0.002] ------- [26:0 34:0 32 0] [11] 0 0
D 0.080151329 _26_ RTR  IFQ 8 cbr 520 [0 0 0 0] [energy 999.973086 ei 0.025 es 0.000 et 0.000 er 0.002] ------- [26:0 34:0 32 0] [6] 0 0
s 0.084151329 _26_ AGT  --- 14 cbr 500 [0 0 0 0] [energy 999.973086 ei 0.025 es 0.000 et 0.000 er 0.002] ------- [26:0 34:0 32 0] [12] 0 0
D 0.084151329 _26_ RTR  IFQ 9 cbr 520 [0 0 0 0] [energy 999.973086 ei 0.025 es 0.000 et 0.000 er 0.002] ------- [26:0 34:0 32 0] [7] 0 0
s 0.088151329 _26_ AGT  --- 16 cbr 500 [0 0 0 0] [energy 999.973086 ei 0.025 es 0.000 et 0.000 er 0.002] ------- [26:0 34:0 32 0] [13] 0 0
D 0.088151329 _26_ RTR  IFQ 10 cbr 520 [0 0 0 0] [energy 999.973086 ei 0.025 es 0.000 et 0.000 er 0.002] ------- [26:0 34:0 32 0] [8] 0 0
s 0.092151329 _26_ AGT  --- 17 cbr 500 [0 0 0 0] [energy 999.973086 ei 0.025 es 0.000 et 0.000 er 0.002] ------- [26:0 34:0 32 0] [14] 0 0
D 0.092151329 _26_ RTR  IFQ 11 cbr 520 [0 0 0 0] [energy 999.973086 ei 0.025 es 0.000 et 0.000 er 0.002] ------- [26:0 34:0 32 0] [9] 0 0
s 0.092830354 _13_ MAC  --- 15 message 90 [0 ffffffff d 800] [energy 999.973086 ei 0.025 es 0.000 et 0.000 er 0.002] ------- [13:255 -1:255 32 0] 
N -t 0.092830 -n 12 -e 999.917174
N -t 0.092830 -n 11 -e 999.917174
N -t 0.092830 -n 10 -e 999.917174
N -t 0.092830 -n 9 -e 999.917174
N -t 0.092830 -n 8 -e 999.917174
N -t 0.092830 -n 14 -e 999.917174
N -t 0.092830 -n 15 -e 999.917174
N -t 0.092830 -n 7 -e 999.917174
N -t 0.092830 -n 6 -e 999.917174
N -t 0.092830 -n 5 -e 999.917174
N -t 0.092830 -n 4 -e 999.917174
N -t 0.092830 -n 3 -e 999.917174
N -t 0.092830 -n 2 -e 999.917089
N -t 0.092830 -n 1 -e 999.917174
N -t 0.092830 -n 0 -e 999.917089
N -t 0.092830 -n 16 -e 999.917174
N -t 0.092830 -n 17 -e 999.917174
N -t 0.092830 -n 18 -e 999.917174
N -t 0.092830 -n 19 -e 999.917174
N -t 0.092830 -n 20 -e 999.917174
N -t 0.092830 -n 21 -e 999.917174
N -t 0.092830 -n 22 -e 999.917174
N -t 0.092830 -n 23 -e 999.917174
N -t 0.092830 -n 24 -e 999.917174
N -t 0.092830 -n 25 -e 999.917174
N -t 0.092830 -n 26 -e 999.917174
N -t 0.092830 -n 27 -e 999.917174
N -t 0.092830 -n 28 -e 999.917174
N -t 0.092830 -n 29 -e 999.917174
N -t 0.092830 -n 30 -e 999.917174
N -t 0.092830 -n 31 -e 999.917174
N -t 0.092830 -n 32 -e 999.917174
N -t 0.092830 -n 33 -e 999.917174
N -t 0.092830 -n 34 -e 999.917174
N -t 0.092830 -n 35 -e 999.917174
N -t 0.092830 -n 36 -e 999.917174
N -t 0.092830 -n 37 -e 999.917174
N -t 0.092830 -n 38 -e 999.917174
N -t 0.092830 -n 39 -e 999.917174
r 0.093550354 _12_ MAC  --- 15 message 32 [0 ffffffff d 800] [energy 999.917174 ei 0.079 es 0.000 et 0.000 er 0.003] ------- [13:255 -1:255 32 0] 
r 0.093550354 _11_ MAC  --- 15 message 32 [0 ffffffff d 800] [energy 999.917174 ei 0.079 es 0.000 et 0.000 er 0.003] ------- [13:255 -1:255 32 0] 
r 0.093550354 _10_ MAC  --- 15 message 32 [0 ffffffff d 800] [energy 999.917174 ei 0.079 es 0.000 et 0.000 er 0.003] ------- [13:255 -1:255 32 0] 
r 0.093550354 _9_ MAC  --- 15 message 32 [0 ffffffff d 800] [energy 999.917174 ei 0.079 es 0.000 et 0.000 er 0.003] ------- [13:255 -1:255 32 0] 
r 0.093550354 _8_ MAC  --- 15 message 32 [0 ffffffff d 800] [energy 999.917174 ei 0.079 es 0.000 et 0.000 er 0.003] ------- [13:255 -1:255 32 0] 
r 0.093550354 _14_ MAC  --- 15 message 32 [0 ffffffff d 800] [energy 999.917174 ei 0.079 es 0.000 et 0.000 er 0.003] ------- [13:255 -1:255 32 0] 
r 0.093550354 _15_ MAC  --- 15 message 32 [0 ffffffff d 800] [energy 999.917174 ei 0.079 es 0.000 et 0.000 er 0.003] ------- [13:255 -1:255 32 0] 
r 0.093550361 _7_ MAC  --- 15 message 32 [0 ffffffff d 800] [energy 999.917174 ei 0.079 es 0.000 et 0.000 er 0.003] ------- [13:255 -1:255 32 0] 
r 0.093550361 _6_ MAC  --- 15 message 32 [0 ffffffff d 800] [energy 999.917174 ei 0.079 es 0.000 et 0.000 er 0.003] ------- [13:255 -1:255 32 0] 
r 0.093550361 _5_ MAC  --- 15 message 32 [0 ffffffff d 800] [energy 999.917174 ei 0.079 es 0.000 et 0.000 er 0.003] ------- [13:255 -1:255 32 0] 
r 0.093550361 _4_ MAC  --- 15 message 32 [0 ffffffff d 800] [energy 999.917174 ei 0.079 es 0.000 et 0.000 er 0.003] ------- [13:255 -1:255 32 0] 
r 0.093550361 _3_ MAC  --- 15 message 32 [0 ffffffff d 800] [energy 999.917174 ei 0.079 es 0.000 et 0.000 er 0.003] ------- [13:255 -1:255 32 0] 
r 0.093550361 _2_ MAC  --- 15 message 32 [0 ffffffff d 800] [energy 999.917089 ei 0.079 es 0.000 et 0.001 er 0.002] ------- [13:255 -1:255 32 0] 
r 0.093550361 _1_ MAC  --- 15 message 32 [0 ffffffff d 800] [energy 999.917174 ei 0.079 es 0.000 et 0.000 er 0.003] ------- [13:255 -1:255 32 0] 
r 0.093550361 _0_ MAC  --- 15 message 32 [0 ffffffff d 800] [energy 999.917089 ei 0.079 es 0.000 et 0.001 er 0.002] ------- [13:255 -1:255 32 0] 
r 0.093550361 _16_ MAC  --- 15 message 32 [0 ffffffff d 800] [energy 999.917174 ei 0.079 es 0.000 et 0.000 er 0.003] ------- [13:255 -1:255 32 0] 
r 0.093550361 _17_ MAC  --- 15 message 32 [0 ffffffff d 800] [energy 999.917174 ei 0.079 es 0.000 et 0.000 er 0.003] ------- [13:255 -1:255 32 0] 
r 0.093550361 _18_ MAC  --- 15 message 32 [0 ffffffff d 800] [energy 999.917174 ei 0.079 es 0.000 et 0.000 er 0.003] ------- [13:255 -1:255 32 0] 
r 0.093550361 _19_ MAC  --- 15 message 32 [0 ffffffff d 800] [energy 999.917174 ei 0.079 es 0.000 et 0.000 er 0.003] ------- [13:255 -1:255 32 0] 
r 0.093550361 _20_ MAC  --- 15 message 32 [0 ffffffff d 800] [energy 999.917174 ei 0.079 es 0.000 et 0.000 er 0.003] ------- [13:255 -1:255 32 0] 
r 0.093550361 _21_ MAC  --- 15 message 32 [0 ffffffff d 800] [energy 999.917174 ei 0.079 es 0.000 et 0.000 er 0.003] ------- [13:255 -1:255 32 0] 
r 0.093550361 _22_ MAC  --- 15 message 32 [0 ffffffff d 800] [energy 999.917174 ei 0.079 es 0.000 et 0.000 er 0.003] ------- [13:255 -1:255 32 0] 
r 0.093550361 _23_ MAC  --- 15 message 32 [0 ffffffff d 800] [energy 999.917174 ei 0.079 es 0.000 et 0.000 er 0.003] ------- [13:255 -1:255 32 0] 
r 0.093550368 _24_ MAC  --- 15 message 32 [0 ffffffff d 800] [energy 999.917174 ei 0.079 es 0.000 et 0.000 er 0.003] ------- [13:255 -1:255 32 0] 
r 0.093550368 _25_ MAC  --- 15 message 32 [0 ffffffff d 800] [energy 999.917174 ei 0.079 es 0.000 et 0.000 er 0.003] ------- [13:255 -1:255 32 0] 
r 0.093550368 _26_ MAC  --- 15 message 32 [0 ffffffff d 800] [energy 999.917174 ei 0.079 es 0.000 et 0.000 er 0.003] ------- [13:255 -1:255 32 0] 
r 0.093550368 _27_ MAC  --- 15 message 32 [0 ffffffff d 800] [energy 999.917174 ei 0.079 es 0.000 et 0.000 er 0.003] ------- [13:255 -1:255 32 0] 
r 0.093550368 _28_ MAC  --- 15 message 32 [0 ffffffff d 800] [energy 999.917174 ei 0.079 es 0.000 et 0.000 er 0.003] ------- [13:255 -1:255 32 0] 
r 0.093550368 _29_ MAC  --- 15 message 32 [0 ffffffff d 800] [energy 999.917174 ei 0.079 es 0.000 et 0.000 er 0.003] ------- [13:255 -1:255 32 0] 
r 0.093550368 _30_ MAC  --- 15 message 32 [0 ffffffff d 800] [energy 999.917174 ei 0.079 es 0.000 et 0.000 er 0.003] ------- [13:255 -1:255 32 0] 
r 0.093550368 _31_ MAC  --- 15 message 32 [0 ffffffff d 800] [energy 999.917174 ei 0.079 es 0.000 et 0.000 er 0.003] ------- [13:255 -1:255 32 0] 
r 0.093550374 _32_ MAC  --- 15 message 32 [0 ffffffff d 800] [energy 999.917174 ei 0.079 es 0.000 et 0.000 er 0.003] ------- [13:255 -1:255 32 0] 
r 0.093550374 _33_ MAC  --- 15 message 32 [0 ffffffff d 800] [energy 999.917174 ei 0.079 es 0.000 et 0.000 er 0.003] ------- [13:255 -1:255 32 0] 
r 0.093550374 _34_ MAC  --- 15 message 32 [0 ffffffff d 800] [energy 999.917174 ei 0.079 es 0.000 et 0.000 er 0.003] ------- [13:255 -1:255 32 0] 
r 0.093550374 _35_ MAC  --- 15 message 32 [0 ffffffff d 800] [energy 999.917174 ei 0.079 es 0.000 et 0.000 er 0.003] ------- [13:255 -1:255 32 0] 
r 0.093550374 _36_ MAC  --- 15 message 32 [0 ffffffff d 800] [energy 999.917174 ei 0.079 es 0.000 et 0.000 er 0.003] ------- [13:255 -1:255 32 0] 
r 0.093550374 _37_ MAC  --- 15 message 32 [0 ffffffff d 800] [energy 999.917174 ei 0.079 es 0.000 et 0.000 er 0.003] ------- [13:255 -1:255 32 0] 
r 0.093550374 _38_ MAC  --- 15 message 32 [0 ffffffff d 800] [energy 999.917174 ei 0.079 es 0.000 et 0.000 er 0.003] ------- [13:255 -1:255 32 0] 
r 0.093550374 _39_ MAC  --- 15 message 32 [0 ffffffff d 800] [energy 999.917174 ei 0.079 es 0.000 et 0.000 er 0.003] ------- [13:255 -1:255 32 0] 
s 0.096151329 _26_ AGT  --- 18 cbr 500 [0 0 0 0] [energy 999.917174 ei 0.079 es 0.000 et 0.000 er 0.003] ------- [26:0 34:0 32 0] [15] 0 0
D 0.096151329 _26_ RTR  IFQ 12 cbr 520 [0 0 0 0] [energy 999.917174 ei 0.079 es 0.000 et 0.000 er 0.003] ------- [26:0 34:0 32 0] [10] 0 0
s 0.100151329 _26_ AGT  --- 19 cbr 500 [0 0 0 0] [energy 999.917174 ei 0.079 es 0.000 et 0.000 er 0.003] ------- [26:0 34:0 32 0] [16] 0 0
D 0.100151329 _26_ RTR  IFQ 13 cbr 520 [0 0 0 0] [energy 999.917174 ei 0.079 es 0.000 et 0.000 er 0.003] ------- [26:0 34:0 32 0] [11] 0 0
s 0.104151329 _26_ AGT  --- 20 cbr 500 [0 0 0 0] [energy 999.917174 ei 0.079 es 0.000 et 0.000 er 0.003] ------- [26:0 34:0 32 0] [17] 0 0
D 0.104151329 _26_ RTR  IFQ 14 cbr 520 [0 0 0 0] [energy 999.917174 ei 0.079 es 0.000 et 0.000 er 0.003] ------- [26:0 34:0 32 0] [12] 0 0
s 0.108151329 _26_ AGT  --- 21 cbr 500 [0 0 0 0] [energy 999.917174 ei 0.079 es 0.000 et 0.000 er 0.003] ------- [26:0 34:0 32 0] [18] 0 0
D 0.108151329 _26_ RTR  IFQ 16 cbr 520 [0 0 0 0] [energy 999.917174 ei 0.079 es 0.000 et 0.000 er 0.003] ------- [26:0 34:0 32 0] [13] 0 0
s 0.112151329 _26_ AGT  --- 22 cbr 500 [0 0 0 0] [energy 999.917174 ei 0.079 es 0.000 et 0.000 er 0.003] ------- [26:0 34:0 32 0] [19] 0 0
D 0.112151329 _26_ RTR  IFQ 17 cbr 520 [0 0 0 0] [energy 999.917174 ei 0.079 es 0.000 et 0.000 er 0.003] ------- [26:0 34:0 32 0] [14] 0 0
s 0.116151329 _26_ AGT  --- 23 cbr 500 [0 0 0 0] [energy 999.917174 ei 0.079 es 0.000 et 0.000 er 0.003] ------- [26:0 34:0 32 0] [20] 0 0
D 0.116151329 _26_ RTR  IFQ 18 cbr 520 [0 0 0 0] [energy 999.917174 ei 0.079 es 0.000 et 0.000 er 0.003] ------- [26:0 34:0 32 0] [15] 0 0
s 0.120151329 _26_ AGT  --- 24 cbr 500 [0 0 0 0] [energy 999.917174 ei 0.079 es 0.000 et 0.000 er 0.003] ------- [26:0 34:0 32 0] [21] 0 0
D 0.120151329 _26_ RTR  IFQ 19 cbr 520 [0 0 0 0] [energy 999.917174 ei 0.079 es 0.000 et 0.000 er 0.003] ------- [26:0 34:0 32 0] [16] 0 0
s 0.124151329 _26_ AGT  --- 25 cbr 500 [0 0 0 0] [energy 999.917174 ei 0.079 es 0.000 et 0.000 er 0.003] ------- [26:0 34:0 32 0] [22] 0 0
D 0.124151329 _26_ RTR  IFQ 20 cbr 520 [0 0 0 0] [energy 999.917174 ei 0.079 es 0.000 et 0.000 er 0.003] ------- [26:0 34:0 32 0] [17] 0 0
s 0.128151329 _26_ AGT  --- 26 cbr 500 [0 0 0 0] [energy 999.917174 ei 0.079 es 0.000 et 0.000 er 0.003] ------- [26:0 34:0 32 0] [23] 0 0
D 0.128151329 _26_ RTR  IFQ 21 cbr 520 [0 0 0 0] [energy 999.917174 ei 0.079 es 0.000 et 0.000 er 0.003] ------- [26:0 34:0 32 0] [18] 0 0
s 0.132151329 _26_ AGT  --- 27 cbr 500 [0 0 0 0] [energy 999.917174 ei 0.079 es 0.000 et 0.000 er 0.003] ------- [26:0 34:0 32 0] [24] 0 0
D 0.132151329 _26_ RTR  IFQ 22 cbr 520 [0 0 0 0] [energy 999.917174 ei 0.079 es 0.000 et 0.000 er 0.003] ------- [26:0 34:0 32 0] [19] 0 0
s 0.136151329 _26_ AGT  --- 28 cbr 500 [0 0 0 0] [energy 999.917174 ei 0.079 es 0.000 et 0.000 er 0.003] ------- [26:0 34:0 32 0] [25] 0 0
D 0.136151329 _26_ RTR  IFQ 23 cbr 520 [0 0 0 0] [energy 999.917174 ei 0.079 es 0.000 et 0.000 er 0.003] ------- [26:0 34:0 32 0] [20] 0 0
s 0.140151329 _26_ AGT  --- 29 cbr 500 [0 0 0 0] [energy 999.917174 ei 0.079 es 0.000 et 0.000 er 0.003] ------- [26:0 34:0 32 0] [26] 0 0
D 0.140151329 _26_ RTR  IFQ 24 cbr 520 [0 0 0 0] [energy 999.917174 ei 0.079 es 0.000 et 0.000 er 0.003] ------- [26:0 34:0 32 0] [21] 0 0
s 0.144151329 _26_ AGT  --- 30 cbr 500 [0 0 0 0] [energy 999.917174 ei 0.079 es 0.000 et 0.000 er 0.003] ------- [26:0 34:0 32 0] [27] 0 0
D 0.144151329 _26_ RTR  IFQ 25 cbr 520 [0 0 0 0] [energy 999.917174 ei 0.079 es 0.000 et 0.000 er 0.003] ------- [26:0 34:0 32 0] [22] 0 0
s 0.148151329 _26_ AGT  --- 31 cbr 500 [0 0 0 0] [energy 999.917174 ei 0.079 es 0.000 et 0.000 er 0.003] ------- [26:0 34:0 32 0] [28] 0 0
D 0.148151329 _26_ RTR  IFQ 26 cbr 520 [0 0 0 0] [energy 999.917174 ei 0.079 es 0.000 et 0.000 er 0.003] ------- [26:0 34:0 32 0] [23] 0 0
s 0.152151329 _26_ AGT  --- 32 cbr 500 [0 0 0 0] [energy 999.917174 ei 0.079 es 0.000 et 0.000 er 0.003] ------- [26:0 34:0 32 0] [29] 0 0
D 0.152151329 _26_ RTR  IFQ 27 cbr 520 [0 0 0 0] [energy 999.917174 ei 0.079 es 0.000 et 0.000 er 0.003] ------- [26:0 34:0 32 0] [24] 0 0
s 0.156151329 _26_ AGT  --- 33 cbr 500 [0 0 0 0] [energy 999.917174 ei 0.079 es 0.000 et 0.000 er 0.003] ------- [26:0 34:0 32 0] [30] 0 0
D 0.156151329 _26_ RTR  IFQ 28 cbr 520 [0 0 0 0] [energy 999.917174 ei 0.079 es 0.000 et 0.000 er 0.003] ------- [26:0 34:0 32 0] [25] 0 0
s 0.160151329 _26_ AGT  --- 34 cbr 500 [0 0 0 0] [energy 999.917174 ei 0.079 es 0.000 et 0.000 er 0.003] ------- [26:0 34:0 32 0] [31] 0 0
D 0.160151329 _26_ RTR  IFQ 29 cbr 520 [0 0 0 0] [energy 999.917174 ei 0.079 es 0.000 et 0.000 er 0.003] ------- [26:0 34:0 32 0] [26] 0 0
s 0.164151329 _26_ AGT  --- 35 cbr 500 [0 0 0 0] [energy 999.917174 ei 0.079 es 0.000 et 0.000 er 0.003] ------- [26:0 34:0 32 0] [32] 0 0
D 0.164151329 _26_ RTR  IFQ 30 cbr 520 [0 0 0 0] [energy 999.917174 ei 0.079 es 0.000 et 0.000 er 0.003] ------- [26:0 34:0 32 0] [27] 0 0
s 0.168151329 _26_ AGT  --- 36 cbr 500 [0 0 0 0] [energy 999.917174 ei 0.079 es 0.000 et 0.000 er 0.003] ------- [26:0 34:0 32 0] [33] 0 0