n -t * -s 0  -x 0 -y 0 -Z 0 -z 10  -v circle -c green
n -t * -s 1  -x 0 -y 0 -Z 0 -z 10  -v circle -c green
n -t * -s 2  -x 0 -y 0 -Z 0 -z 10  -v circle -c green
n -t * -s 3  -x 0 -y 0 -Z 0 -z 10  -v circle -c green
n -t * -s 4  -x 0 -y 0 -Z 0 -z 10  -v circle -c green
n -t * -s 5  -x 0 -y 0 -Z 0 -z 10  -v circle -c green
n -t * -s 6  -x 0 -y 0 -Z 0 -z 10  -v circle -c green
n -t * -s 7  -x 0 -y 0 -Z 0 -z 10  -v circle -c green
n -t * -s 8  -x 0 -y 2 -Z 0 -z 10  -v circle -c green
n -t * -s 9  -x 0 -y 2 -Z 0 -z 10  -v circle -c green
n -t * -s 10  -x 0 -y 2 -Z 0 -z 10  -v circle -c green
n -t * -s 11  -x 0 -y 2 -Z 0 -z 10  -v circle -c green
n -t * -s 12  -x 0 -y 2 -Z 0 -z 10  -v circle -c green
n -t * -s 13  -x 0 -y 2 -Z 0 -z 10  -v circle -c green
n -t * -s 14  -x 0 -y 2 -Z 0 -z 10  -v circle -c green
n -t * -s 15  -x 0 -y 2 -Z 0 -z 10  -v circle -c green
n -t * -s 16  -x 0 -y 4 -Z 0 -z 10  -v circle -c green
n -t * -s 17  -x 0 -y 4 -Z 0 -z 10  -v circle -c green
n -t * -s 18  -x 0 -y 4 -Z 0 -z 10  -v circle -c green
n -t * -s 19  -x 0 -y 4 -Z 0 -z 10  -v circle -c green
n -t * -s 20  -x 0 -y 4 -Z 0 -z 10  -v circle -c green
n -t * -s 21  -x 0 -y 4 -Z 0 -z 10  -v circle -c green
n -t * -s 22  -x 0 -y 4 -Z 0 -z 10  -v circle -c green
n -t * -s 23  -x 0 -y 4 -Z 0 -z 10  -v circle -c green
n -t * -s 24  -x 0 -y 6 -Z 0 -z 10  -v circle -c green
n -t * -s 25  -x 0 -y 6 -Z 0 -z 10  -v circle -c green
n -t * -s 26  -x 0 -y 6 -Z 0 -z 10  -v circle -c green
n -t * -s 27  -x 0 -y 6 -Z 0 -z 10  -v circle -c green
n -t * -s 28  -x 0 -y 6 -Z 0 -z 10  -v circle -c green
n -t * -s 29  -x 0 -y 6 -Z 0 -z 10  -v circle -c green
n -t * -s 30  -x 0 -y 6 -Z 0 -z 10  -v circle -c green
n -t * -s 31  -x 0 -y 6 -Z 0 -z 10  -v circle -c green
n -t * -s 32  -x 0 -y 8 -Z 0 -z 10  -v circle -c green
n -t * -s 33  -x 0 -y 8 -Z 0 -z 10  -v circle -c green
n -t * -s 34  -x 0 -y 8 -Z 0 -z 10  -v circle -c green
n -t * -s 35  -x 0 -y 8 -Z 0 -z 10  -v circle -c green
n -t * -s 36  -x 0 -y 8 -Z 0 -z 10  -v circle -c green
n -t * -s 37  -x 0 -y 8 -Z 0 -z 10  -v circle -c green
n -t * -s 38  -x 0 -y 8 -Z 0 -z 10  -v circle -c green
n -t * -s 39  -x 0 -y 8 -Z 0 -z 10  -v circle -c green
V -t * -v 1.0a5 -a 0
W -t * -x 5 -y 5
A -t * -n 1 -p 0 -o 0x7fffffff -c 30 -a 1
A -t * -h 1 -m 1073741823 -s 0
+ -t 0.010796804 -s 0 -d -1 -p message -e 90 -c 2 -a 0 -i 0 -k MAC 
- -t 0.010796804 -s 0 -d -1 -p message -e 90 -c 2 -a 0 -i 0 -k MAC
h -t 0.010796804 -s 0 -d -1 -p message -e 90 -c 2 -a 0 -i 0 -k MAC
r -t 0.011516804 -s 1 -d -1 -p message -e 32 -c 2 -a 0 -i 0 -k MAC
r -t 0.011516804 -s 2 -d -1 -p message -e 32 -c 2 -a 0 -i 0 -k MAC
r -t 0.011516804 -s 3 -d -1 -p message -e 32 -c 2 -a 0 -i 0 -k MAC
r -t 0.011516804 -s 4 -d -1 -p message -e 32 -c 2 -a 0 -i 0 -k MAC
r -t 0.011516804 -s 5 -d -1 -p message -e 32 -c 2 -a 0 -i 0 -k MAC
r -t 0.011516804 -s 6 -d -1 -p message -e 32 -c 2 -a 0 -i 0 -k MAC
r -t 0.011516804 -s 7 -d -1 -p message -e 32 -c 2 -a 0 -i 0 -k MAC
r -t 0.011516811 -s 8 -d -1 -p message -e 32 -c 2 -a 0 -i 0 -k MAC
r -t 0.011516811 -s 9 -d -1 -p message -e 32 -c 2 -a 0 -i 0 -k MAC
r -t 0.011516811 -s 10 -d -1 -p message -e 32 -c 2 -a 0 -i 0 -k MAC
r -t 0.011516811 -s 11 -d -1 -p message -e 32 -c 2 -a 0 -i 0 -k MAC
r -t 0.011516811 -s 12 -d -1 -p message -e 32 -c 2 -a 0 -i 0 -k MAC
r -t 0.011516811 -s 13 -d -1 -p message -e 32 -c 2 -a 0 -i 0 -k MAC
r -t 0.011516811 -s 14 -d -1 -p message -e 32 -c 2 -a 0 -i 0 -k MAC
r -t 0.011516811 -s 15 -d -1 -p message -e 32 -c 2 -a 0 -i 0 -k MAC
r -t 0.011516817 -s 16 -d -1 -p message -e 32 -c 2 -a 0 -i 0 -k MAC
r -t 0.011516817 -s 17 -d -1 -p message -e 32 -c 2 -a 0 -i 0 -k MAC
r -t 0.011516817 -s 18 -d -1 -p message -e 32 -c 2 -a 0 -i 0 -k MAC
r -t 0.011516817 -s 19 -d -1 -p message -e 32 -c 2 -a 0 -i 0 -k MAC
r -t 0.011516817 -s 20 -d -1 -p message -e 32 -c 2 -a 0 -i 0 -k MAC
r -t 0.011516817 -s 21 -d -1 -p message -e 32 -c 2 -a 0 -i 0 -k MAC
r -t 0.011516817 -s 22 -d -1 -p message -e 32 -c 2 -a 0 -i 0 -k MAC
r -t 0.011516817 -s 23 -d -1 -p message -e 32 -c 2 -a 0 -i 0 -k MAC
r -t 0.011516824 -s 24 -d -1 -p message -e 32 -c 2 -a 0 -i 0 -k MAC
r -t 0.011516824 -s 25 -d -1 -p message -e 32 -c 2 -a 0 -i 0 -k MAC
r -t 0.011516824 -s 26 -d -1 -p message -e 32 -c 2 -a 0 -i 0 -k MAC
r -t 0.011516824 -s 27 -d -1 -p message -e 32 -c 2 -a 0 -i 0 -k MAC
r -t 0.011516824 -s 28 -d -1 -p message -e 32 -c 2 -a 0 -i 0 -k MAC
r -t 0.011516824 -s 29 -d -1 -p message -e 32 -c 2 -a 0 -i 0 -k MAC
r -t 0.011516824 -s 30 -d -1 -p message -e 32 -c 2 -a 0 -i 0 -k MAC
r -t 0.011516824 -s 31 -d -1 -p message -e 32 -c 2 -a 0 -i 0 -k MAC
r -t 0.011516831 -s 32 -d -1 -p message -e 32 -c 2 -a 0 -i 0 -k MAC
r -t 0.011516831 -s 33 -d -1 -p message -e 32 -c 2 -a 0 -i 0 -k MAC
r -t 0.011516831 -s 34 -d -1 -p message -e 32 -c 2 -a 0 -i 0 -k MAC
r -t 0.011516831 -s 35 -d -1 -p message -e 32 -c 2 -a 0 -i 0 -k MAC
r -t 0.011516831 -s 36 -d -1 -p message -e 32 -c 2 -a 0 -i 0 -k MAC
r -t 0.011516831 -s 37 -d -1 -p message -e 32 -c 2 -a 0 -i 0 -k MAC
r -t 0.011516831 -s 38 -d -1 -p message -e 32 -c 2 -a 0 -i 0 -k MAC
r -t 0.011516831 -s 39 -d -1 -p message -e 32 -c 2 -a 0 -i 0 -k MAC
+ -t 0.029092405 -s 2 -d -1 -p message -e 90 -c 2 -a 0 -i 1 -k MAC 
- -t 0.029092405 -s 2 -d -1 -p message -e 90 -c 2 -a 0 -i 1 -k MAC
h -t 0.029092405 -s 2 -d -1 -p message -e 90 -c 2 -a 0 -i 1 -k MAC
r -t 0.029812405 -s 1 -d -1 -p message -e 32 -c 2 -a 0 -i 1 -k MAC
r -t 0.029812405 -s 0 -d -1 -p message -e 32 -c 2 -a 0 -i 1 -k MAC
r -t 0.029812405 -s 3 -d -1 -p message -e 32 -c 2 -a 0 -i 1 -k MAC
r -t 0.029812405 -s 4 -d -1 -p message -e 32 -c 2 -a 0 -i 1 -k MAC
r -t 0.029812405 -s 5 -d -1 -p message -e 32 -c 2 -a 0 -i 1 -k MAC
r -t 0.029812405 -s 6 -d -1 -p message -e 32 -c 2 -a 0 -i 1 -k MAC
r -t 0.029812405 -s 7 -d -1 -p message -e 32 -c 2 -a 0 -i 1 -k MAC
r -t 0.029812411 -s 8 -d -1 -p message -e 32 -c 2 -a 0 -i 1 -k MAC
r -t 0.029812411 -s 9 -d -1 -p message -e 32 -c 2 -a 0 -i 1 -k MAC
r -t 0.029812411 -s 10 -d -1 -p message -e 32 -c 2 -a 0 -i 1 -k MAC
r -t 0.029812411 -s 11 -d -1 -p message -e 32 -c 2 -a 0 -i 1 -k MAC
r -t 0.029812411 -s 12 -d -1 -p message -e 32 -c 2 -a 0 -i 1 -k MAC
r -t 0.029812411 -s 13 -d -1 -p message -e 32 -c 2 -a 0 -i 1 -k MAC
r -t 0.029812411 -s 14 -d -1 -p message -e 32 -c 2 -a 0 -i 1 -k MAC
r -t 0.029812411 -s 15 -d -1 -p message -e 32 -c 2 -a 0 -i 1 -k MAC
r -t 0.029812418 -s 16 -d -1 -p message -e 32 -c 2 -a 0 -i 1 -k MAC
r -t 0.029812418 -s 17 -d -1 -p message -e 32 -c 2 -a 0 -i 1 -k MAC
r -t 0.029812418 -s 18 -d -1 -p message -e 32 -c 2 -a 0 -i 1 -k MAC
r -t 0.029812418 -s 19 -d -1 -p message -e 32 -c 2 -a 0 -i 1 -k MAC
r -t 0.029812418 -s 20 -d -1 -p message -e 32 -c 2 -a 0 -i 1 -k MAC
r -t 0.029812418 -s 21 -d -1 -p message -e 32 -c 2 -a 0 -i 1 -k MAC
r -t 0.029812418 -s 22 -d -1 -p message -e 32 -c 2 -a 0 -i 1 -k MAC
r -t 0.029812418 -s 23 -d -1 -p message -e 32 -c 2 -a 0 -i 1 -k MAC
r -t 0.029812425 -s 24 -d -1 -p message -e 32 -c 2 -a 0 -i 1 -k MAC
r -t 0.029812425 -s 25 -d -1 -p message -e 32 -c 2 -a 0 -i 1 -k MAC
r -t 0.029812425 -s 26 -d -1 -p message -e 32 -c 2 -a 0 -i 1 -k MAC
r -t 0.029812425 -s 27 -d -1 -p message -e 32 -c 2 -a 0 -i 1 -k MAC
r -t 0.029812425 -s 28 -d -1 -p message -e 32 -c 2 -a 0 -i 1 -k MAC
r -t 0.029812425 -s 29 -d -1 -p message -e 32 -c 2 -a 0 -i 1 -k MAC
r -t 0.029812425 -s 30 -d -1 -p message -e 32 -c 2 -a 0 -i 1 -k MAC
r -t 0.029812425 -s 31 -d -1 -p message -e 32 -c 2 -a 0 -i 1 -k MAC
r -t 0.029812431 -s 32 -d -1 -p message -e 32 -c 2 -a 0 -i 1 -k MAC
r -t 0.029812431 -s 33 -d -1 -p message -e 32 -c 2 -a 0 -i 1 -k MAC
r -t 0.029812431 -s 34 -d -1 -p message -e 32 -c 2 -a 0 -i 1 -k MAC
r -t 0.029812431 -s 35 -d -1 -p message -e 32 -c 2 -a 0 -i 1 -k MAC
r -t 0.029812431 -s 36 -d -1 -p message -e 32 -c 2 -a 0 -i 1 -k MAC
r -t 0.029812431 -s 37 -d -1 -p message -e 32 -c 2 -a 0 -i 1 -k MAC
r -t 0.029812431 -s 38 -d -1 -p message -e 32 -c 2 -a 0 -i 1 -k MAC
r -t 0.029812431 -s 39 -d -1 -p message -e 32 -c 2 -a 0 -i 1 -k MAC
+ -t 0.036151329 -s 26 -d -1 -p cbr -e 500 -c 2 -a 0 -i 2 -k AGT 
- -t 0.036151329 -s 26 -d -1 -p cbr -e 500 -c 2 -a 0 -i 2 -k AGT
h -t 0.036151329 -s 26 -d -1 -p cbr -e 500 -c 2 -a 0 -i 2 -k AGT
+ -t 0.040151329 -s 26 -d -1 -p cbr -e 500 -c 2 -a 0 -i 3 -k AGT 
- -t 0.040151329 -s 26 -d -1 -p cbr -e 500 -c 2 -a 0 -i 3 -k AGT
h -t 0.040151329 -s 26 -d -1 -p cbr -e 500 -c 2 -a 0 -i 3 -k AGT
+ -t 0.044151329 -s 26 -d -1 -p cbr -e 500 -c 2 -a 0 -i 4 -k AGT 
- -t 0.044151329 -s 26 -d -1 -p cbr -e 500 -c 2 -a 0 -i 4 -k AGT
h -t 0.044151329 -s 26 -d -1 -p cbr -e 500 -c 2 -a 0 -i 4 -k AGT
+ -t 0.048151329 -s 26 -d -1 -p cbr -e 500 -c 2 -a 0 -i 5 -k AGT 
- -t 0.048151329 -s 26 -d -1 -p cbr -e 500 -c 2 -a 0 -i 5 -k AGT
h -t 0.048151329 -s 26 -d -1 -p cbr -e 500 -c 2 -a 0 -i 5 -k AGT
+ -t 0.052151329 -s 26 -d -1 -p cbr -e 500 -c 2 -a 0 -i 6 -k AGT 
- -t 0.052151329 -s 26 -d -1 -p cbr -e 500 -c 2 -a 0 -i 6 -k AGT
h -t 0.052151329 -s 26 -d -1 -p cbr -e 500 -c 2 -a 0 -i 6 -k AGT
+ -t 0.056151329 -s 26 -d -1 -p cbr -e 500 -c 2 -a 0 -i 7 -k AGT 
- -t 0.056151329 -s 26 -d -1 -p cbr -e 500 -c 2 -a 0 -i 7 -k AGT
h -t 0.056151329 -s 26 -d -1 -p cbr -e 500 -c 2 -a 0 -i 7 -k AGT
d -t 0.056151329 -s 26 -d -1 -p cbr -e 520 -c 2 -a 0 -i 2 -k RTR
+ -t 0.060151329 -s 26 -d -1 -p cbr -e 500 -c 2 -a 0 -i 8 -k AGT 
- -t 0.060151329 -s 26 -d -1 -p cbr -e 500 -c 2 -a 0 -i 8 -k AGT
h -t 0.060151329 -s 26 -d -1 -p cbr -e 500 -c 2 -a 0 -i 8 -k AGT
d -t 0.060151329 -s 26 -d -1 -p cbr -e 520 -c 2 -a 0 -i 3 -k RTR
+ -t 0.064151329 -s 26 -d -1 -p cbr -e 500 -c 2 -a 0 -i 9 -k AGT 
- -t 0.064151329 -s 26 -d -1 -p cbr -e 500 -c 2 -a 0 -i 9 -k AGT
h -t 0.064151329 -s 26 -d -1 -p cbr -e 500 -c 2 -a 0 -i 9 -k AGT
d -t 0.064151329 -s 26 -d -1 -p cbr -e 520 -c 2 -a 0 -i 4 -k RTR
+ -t 0.068151329 -s 26 -d -1 -p cbr -e 500 -c 2 -a 0 -i 10 -k AGT 
- -t 0.068151329 -s 26 -d -1 -p cbr -e 500 -c 2 -a 0 -i 10 -k AGT
h -t 0.068151329 -s 26 -d -1 -p cbr -e 500 -c 2 -a 0 -i 10 -k AGT
d -t 0.068151329 -s 26 -d -1 -p cbr -e 520 -c 2 -a 0 -i 5 -k RTR
+ -t 0.072151329 -s 26 -d -1 -p cbr -e 500 -c 2 -a 0 -i 11 -k AGT 
- -t 0.072151329 -s 26 -d -1 -p cbr -e 500 -c 2 -a 0 -i 11 -k AGT
h -t 0.072151329 -s 26 -d -1 -p cbr -e 500 -c 2 -a 0 -i 11 -k AGT
d -t 0.072151329 -s 26 -d -1 -p cbr -e 520 -c 2 -a 0 -i 6 -k RTR
+ -t 0.076151329 -s 26 -d -1 -p cbr -e 500 -c 2 -a 0 -i 12 -k AGT 
- -t 0.076151329 -s 26 -d -1 -p cbr -e 500 -c 2 -a 0 -i 12 -k AGT
h -t 0.076151329 -s 26 -d -1 -p cbr -e 500 -c 2 -a 0 -i 12 -k AGT
d -t 0.076151329 -s 26 -d -1 -p cbr -e 520 -c 2 -a 0 -i 7 -k RTR
+ -t 0.080151329 -s 26 -d -1 -p cbr -e 500 -c 2 -a 0 -i 13 -k AGT 
- -t 0.080151329 -s 26 -d -1 -p cbr -e 500 -c 2 -a 0 -i 13 -k AGT
h -t 0.080151329 -s 26 -d -1 -p cbr -e 500 -c 2 -a 0 -i 13 -k AGT
d -t 0.080151329 -s 26 -d -1 -p cbr -e 520 -c 2 -a 0 -i 8 -k RTR
+ -t 0.084151329 -s 26 -d -1 -p cbr -e 500 -c 2 -a 0 -i 14 -k AGT 
- -t 0.084151329 -s 26 -d -1 -p cbr -e 500 -c 2 -a 0 -i 14 -k AGT
h -t 0.084151329 -s 26 -d -1 -p cbr -e 500 -c 2 -a 0 -i 14 -k AGT
d -t 0.084151329 -s 26 -d -1 -p cbr -e 520 -c 2 -a 0 -i 9 -k RTR
+ -t 0.088151329 -s 26 -d -1 -p cbr -e 500 -c 2 -a 0 -i 16 -k AGT 
- -t 0.088151329 -s 26 -d -1 -p cbr -e 500 -c 2 -a 0 -i 16 -k AGT
h -t 0.088151329 -s 26 -d -1 -p cbr -e 500 -c 2 -a 0 -i 16 -k AGT
d -t 0.088151329 -s 26 -d -1 -p cbr -e 520 -c 2 -a 0 -i 10 -k RTR
+ -t 0.092151329 -s 26 -d -1 -p cbr -e 500 -c 2 -a 0 -i 17 -k AGT 
- -t 0.092151329 -s 26 -d -1 -p cbr -e 500 -c 2 -a 0 -i 17 -k AGT
h -t 0.092151329 -s 26 -d -1 -p cbr -e 500 -c 2 -a 0 -i 17 -k AGT
d -t 0.092151329 -s 26 -d -1 -p cbr -e 520 -c 2 -a 0 -i 11 -k RTR
+ -t 0.092830354 -s 13 -d -1 -p message -e 90 -c 2 -a 0 -i 15 -k MAC 
- -t 0.092830354 -s 13 -d -1 -p message -e 90 -c 2 -a 0 -i 15 -k MAC
h -t 0.092830354 -s 13 -d -1 -p message -e 90 -c 2 -a 0 -i 15 -k MAC
r -t 0.093550354 -s 12 -d -1 -p message -e 32 -c 2 -a 0 -i 15 -k MAC
r -t 0.093550354 -s 11 -d -1 -p message -e 32 -c 2 -a 0 -i 15 -k MAC
r -t 0.093550354 -s 10 -d -1 -p message -e 32 -c 2 -a 0 -i 15 -k MAC
r -t 0.093550354 -s 9 -d -1 -p message -e 32 -c 2 -a 0 -i 15 -k MAC
r -t 0.093550354 -s 8 -d -1 -p message -e 32 -c 2 -a 0 -i 15 -k MAC
r -t 0.093550354 -s 14 -d -1 -p message -e 32 -c 2 -a 0 -i 15 -k MAC
r -t 0.093550354 -s 15 -d -1 -p message -e 32 -c 2 -a 0 -i 15 -k MAC
r -t 0.093550361 -s 7 -d -1 -p message -e 32 -c 2 -a 0 -i 15 -k MAC
r -t 0.093550361 -s 6 -d -1 -p message -e 32 -c 2 -a 0 -i 15 -k MAC
r -t 0.093550361 -s 5 -d -1 -p message -e 32 -c 2 -a 0 -i 15 -k MAC
r -t 0.093550361 -s 4 -d -1 -p message -e 32 -c 2 -a 0 -i 15 -k MAC
r -t 0.093550361 -s 3 -d -1 -p message -e 32 -c 2 -a 0 -i 15 -k MAC
r -t 0.093550361 -s 2 -d -1 -p message -e 32 -c 2 -a 0 -i 15 -k MAC
r -t 0.093550361 -s 1 -d -1 -p message -e 32 -c 2 -a 0 -i 15 -k MAC
r -t 0.093550361 -s 0 -d -1 -p message -e 32 -c 2 -a 0 -i 15 -k MAC
r -t 0.093550361 -s 16 -d -1 -p message -e 32 -c 2 -a 0 -i 15 -k MAC
r -t 0.093550361 -s 17 -d -1 -p message -e 32 -c 2 -a 0 -i 15 -k MAC
r -t 0.093550361 -s 18 -d -1 -p message -e 32 -c 2 -a 0 -i 15 -k MAC
r -t 0.093550361 -s 19 -d -1 -p message -e 32 -c 2 -a 0 -i 15 -k MAC
r -t 0.093550361 -s 20 -d -1 -p message -e 32 -c 2 -a 0 -i 15 -k MAC
r -t 0.093550361 -s 21 -d -1 -p message -e 32 -c 2 -a 0 -i 15 -k MAC
r -t 0.093550361 -s 22 -d -1 -p message -e 32 -c 2 -a 0 -i 15 -k MAC
r -t 0.093550361 -s 23 -d -1 -p message -e 32 -c 2 -a 0 -i 15 -k MAC
r -t 0.093550368 -s 24 -d -1 -p message -e 32 -c 2 -a 0 -i 15 -k MAC
r -t 0.093550368 -s 25 -d -1 -p message -e 32 -c 2 -a 0 -i 15 -k MAC
r -t 0.093550368 -s 26 -d -1 -p message -e 32 -c 2 -a 0 -i 15 -k MAC
r -t 0.093550368 -s 27 -d -1 -p message -e 32 -c 2 -a 0 -i 15 -k MAC
r -t 0.093550368 -s 28 -d -1 -p message -e 32 -c 2 -a 0 -i 15 -k MAC
r -t 0.093550368 -s 29 -d -1 -p message -e 32 -c 2 -a 0 -i 15 -k MAC
r -t 0.093550368 -s 30 -d -1 -p message -e 32 -c 2 -a 0 -i 15 -k MAC
r -t 0.093550368 -s 31 -d -1 -p message -e 32 -c 2 -a 0 -i 15 -k MAC
r -t 0.093550374 -s 32 -d -1 -p message -e 32 -c 2 -a 0 -i 15 -k MAC
r -t 0.093550374 -s 33 -d -1 -p message -e 32 -c 2 -a 0 -i 15 -k MAC
r -t 0.093550374 -s 34 -d -1 -p message -e 32 -c 2 -a 0 -i 15 -k MAC
r -t 0.093550374 -s 35 -d -1 -p message -e 32 -c 2 -a 0 -i 15 -k MAC
r -t 0.093550374 -s 36 -d -1 -p message -e 32 -c 2 -a 0 -i 15 -k MAC
r -t 0.093550374 -s 37 -d -1 -p message -e 32 -c 2 -a 0 -i 15 -k MAC
r -t 0.093550374 -s 38 -d -1 -p message -e 32 -c 2 -a 0 -i 15 -k MAC
r -t 0.093550374 -s 39 -d -1 -p message -e 32 -c 2 -a 0 -i 15 -k MAC
+ -t 0.096151329 -s 26 -d -1 -p cbr -e 500 -c 2 -a 0 -i 18 -k AGT 
- -t 0.096151329 -s 26 -d -1 -p cbr -e 500 -c 2 -a 0 -i 18 -k AGT
h -t 0.096151329 -s 26 -d -1 -p cbr -e 500 -c 2 -a 0 -i 18 -k AGT
d -t 0.096151329 -s 26 -d -1 -p cbr -e 520 -c 2 -a 0 -i 12 -k RTR
+ -t 0.100151329 -s 26 -d -1 -p cbr -e 500 -c 2 -a 0 -i 19 -k AGT 
- -t 0.100151329 -s 26 -d -1 -p cbr -e 500 -c 2 -a 0 -i 19 -k AGT
h -t 0.100151329 -s 26 -d -1 -p cbr -e 500 -c 2 -a 0 -i 19 -k AGT
d -t 0.100151329 -s 26 -d -1 -p cbr -e 520 -c 2 -a 0 -i 13 -k RTR
+ -t 0.104151329 -s 26 -d -1 -p cbr -e 500 -c 2 -a 0 -i 20 -k AGT 
- -t 0.104151329 -s 26 -d -1 -p cbr -e 500 -c 2 -a 0 -i 20 -k AGT
h -t 0.104151329 -s 26 -d -1 -p cbr -e 500 -c 2 -a 0 -i 20 -k AGT
d -t 0.104151329 -s 26 -d -1 -p cbr -e 520 -c 2 -a 0 -i 14 -k RTR
+ -t 0.108151329 -s 26 -d -1 -p cbr -e 500 -c 2 -a 0 -i 21 -k AGT 
- -t 0.108151329 -s 26 -d -1 -p cbr -e 500 -c 2 -a 0 -i 21 -k AGT
h -t 0.108151329 -s 26 -d -1 -p cbr -e 500 -c 2 -a 0 -i 21 -k AGT
d -t 0.108151329 -s 26 -d -1 -p cbr -e 520 -c 2 -a 0 -i 16 -k RTR
+ -t 0.112151329 -s 26 -d -1 -p cbr -e 500 -c 2 -a 0 -i 22 -k AGT 
- -t 0.112151329 -s 26 -d -1 -p cbr -e 500 -c 2 -a 0 -i 22 -k AGT
h -t 0.112151329 -s 26 -d -1 -p cbr -e 500 -c 2 -a 0 -i 22 -k AGT
d -t 0.112151329 -s 26 -d -1 -p cbr -e 520 -c 2 -a 0 -i 17 -k RTR
+ -t 0.116151329 -s 26 -d -1 -p cbr -e 500 -c 2 -a 0 -i 23 -k AGT 
- -t 0.116151329 -s 26 -d -1 -p cbr -e 500 -c 2 -a 0 -i 23 -k AGT
h -t 0.116151329 -s 26 -d -1 -p cbr -e 500 -c 2 -a 0 -i 23 -k AGT
d -t 0.116151329 -s 26 -d -1 -p cbr -e 520 -c 2 -a 0 -i 18 -k RTR
+ -t 0.120151329 -s 26 -d -1 -p cbr -e 500 -c 2 -a 0 -i 24 -k AGT 
- -t 0.120151329 -s 26 -d -1 -p cbr -e 500 -c 2 -a 0 -i 24 -k AGT
h -t 0.120151329 -s 26 -d -1 -p cbr -e 500 -c 2 -a 0 -i 24 -k AGT
d -t 0.120151329 -s 26 -d -1 -p cbr -e 520 -c 2 -a 0 -i 19 -k RTR
+ -t 0.124151329 -s 26 -d -1 -p cbr -e 500 -c 2 -a 0 -i 25 -k AGT 
- -t 0.124151329 -s 26 -d -1 -p cbr -e 500 -c 2 -a 0 -i 25 -k AGT
h -t 0.124151329 -s 26 -d -1 -p cbr -e 500 -c 2 -a 0 -i 25 -k AGT
d -t 0.124151329 -s 26 -d -1 -p cbr -e 520 -c 2 -a 0 -i 20 -k RTR
+ -t 0.128151329 -s 26 -d -1 -p cbr -e 500 -c 2 -a 0 -i 26 -k AGT 
- -t 0.128151329 -s 26 -d -1 -p cbr -e 500 -c 2 -a 0 -i 26 -k AGT
h -t 0.128151329 -s 26 -d -1 -p cbr -e 500 -c 2 -a 0 -i 26 -k AGT
d -t 0.128151329 -s 26 -d -1 -p cbr -e 520 -c 2 -a 0 -i 21 -k RTR
+ -t 0.132151329 -s 26 -d -1 -p cbr -e 500 -c 2 -a 0 -i 27 -k AGT 
- -t 0.132151329 -s 26 -d -1 -p cbr -e 500 -c 2 -a 0 -i 27 -k AGT
h -t 0.132151329 -s 26 -d -1 -p cbr -e 500 -c 2 -a 0 -i 27 -k AGT
d -t 0.132151329 -s 26 -d -1 -p cbr -e 520 -c 2 -a 0 -i 22 -k RTR
+ -t 0.136151329 -s 26 -d -1 -p cbr -e 500 -c 2 -a 0 -i 28 -k AGT 
- -t 0.136151329 -s 26 -d -1 -p cbr -e 500 -c 2 -a 0 -i 28 -k AGT
h -t 0.136151329 -s 26 -d -1 -p cbr -e 500 -c 2 -a 0 -i 28 -k AGT
d -t 0.136151329 -s 26 -d -1 -p cbr -e 520 -c 2 -a 0 -i 23 -k RTR
+ -t 0.140151329 -s 26 -d -1 -p cbr -e 500 -c 2 -a 0 -i 29 -k AGT 
- -t 0.140151329 -s 26 -d -1 -p cbr -e 500 -c 2 -a 0 -i 29 -k AGT
h -t 0.140151329 -s 26 -d -1 -p cbr -e 500 -c 2 -a 0 -i 29 -k AGT
d -t 0.140151329 -s 26 -d -1 -p cbr -e 520 -c 2 -a 0 -i 24 -k RTR
+ -t 0.144151329 -s 26 -d -1 -p cbr -e 500 -c 2 -a 0 -i 30 -k AGT 
- -t 0.144151329 -s 26 -d -1 -p cbr -e 500 -c 2 -a 0 -i 30 -k AGT
h -t 0.144151329 -s 26 -d -1 -p cbr -e 500 -c 2 -a 0 -i 30 -k AGT
d -t 0.144151329 -s 26 -d -1 -p cbr -e 520 -c 2 -a 0 -i 25 -k RTR
+ -t 0.148151329 -s 26 -d -1 -p cbr -e 500 -c 2 -a 0 -i 31 -k AGT 
- -t 0.148151329 -s 26 -d -1 -p cbr -e 500 -c 2 -a 0 -i 31 -k AGT
h -t 0.148151329 -s 26 -d -1 -p cbr -e 500 -c 2 -a 0 -i 31 -k AGT
d -t 0.148151329 -s 26 -d -1 -p cbr -e 520 -c 2 -a 0 -i 26 -k RTR
+ -t 0.152151329 -s 26 -d -1 -p cbr -e 500 -c 2 -a 0 -i 32 -k AGT 
- -t 0.152151329 -s 26 -d -1 -p cbr -e 500 -c 2 -a 0 -i 32 -k AGT
h -t 0.152151329 -s 26 -d -1 -p cbr -e 500 -c 2 -a 0 -i 32 -k AGT
d -t 0.152151329 -s 26 -d -1 -p cbr -e 520 -c 2 -a 0 -i 27 -k RTR
+ -t 0.156151329 -s 26 -d -1 -p cbr -e 500 -c 2 -a 0 -i 33 -k AGT 
- -t 0.156151329 -s 26 -d -1 -p cbr -e 500 -c 2 -a 0 -i 33 -k AGT
h -t 0.156151329 -s 26 -d -1 -p cbr -e 500 -c 2 -a 0 -i 33 -k AGT
d -t 0.156151329 -s 26 -d -1 -p cbr -e 520 -c 2 -a 0 -i 28 -k RTR
+ -t 0.160151329 -s 26 -d -1 -p cbr -e 500 -c 2 -a 0 -i 34 -k AGT 
- -t 0.160151329 -s 26 -d -1 -p cbr -e 500 -c 2 -a 0 -i 34 -k AGT
h -t 0.160151329 -s 26 -d -1 -p cbr -e 500 -c 2 -a 0 -i 34 -k AGT
d -t 0.160151329 -s 26 -d -1 -p cbr -e 520 -c 2 -a 0 -i 29 -k RTR
+ -t 0.164151329 -s 26 -d -1 -p cbr -e 500 -c 2 -a 0 -i 35 -k AGT 
- -t 0.164151329 -s 26 -d -1 -p cbr -e 500 -c 2 -a 0 -i 35 -k AGT
h -t 0.164151329 -s 26 -d -1 -p cbr -e 500 -c 2 -a 0 -i 35 -k AGT
d -t 0.164151329 -s 26 -d -1 -p cbr -e 520 -c 2 -a 0 -i 30 -k RTR
+ -t 0.168151329 -s 26 -d -1 -p cbr -e 500 -c 2 -a 0 -i 36 -k AGT 
- -t 0.168151329 -s 26 -d -1 -p cbr -e 500 -c 2 -a 0 -i 36 -k AGT
h -t 0.168151329 -s 26 -d -1 -p cbr -e 500 -c 2 -a 0 -i 36 -k AGT
d -t 0.168151329 -s 26 -d -1 -p cbr -e 520 -c 2 -a 0 -i 31 -k RTR
+ -t 0.172151329 -s 26 -d -1 -p cbr -e 500 -c 2 -a 0 -i 37 -k AGT 
- -t 0.172151329 -s 26 -d -1 -p cbr -e 500 -c 2 -a 0 -i 37 -k AGT
h -t 0.172151329 -s 26 -d -1 -p cbr -e 500 -c 2 -a 0 -i 37 -k AGT
d -t 0.172151329 -s 26 -d -1 -p cbr -e 520 -c 2 -a 0 -i 32 -k RTR
+ -t 0.176151329 -s 26 -d -1 -p cbr -e 500 -c 2 -a 0 -i 38 -k AGT 
- -t 0.176151329 -s 26 -d -1 -p cbr -e 500 -c 2 -a 0 -i 38 -k AGT
h -t 0.176151329 -s 26 -d -1 -p cbr -e 500 -c 2 -a 0 -i 38 -k AGT
d -t 0.176151329 -s 26 -d -1 -p cbr -e 520 -c 2 -a 0 -i 33 -k RTR
+ -t 0.180151329 -s 26 -d -1 -p cbr -e 500 -c 2 -a 0 -i 40 -k AGT 
- -t 0.180151329 -s 26 -d -1 -p cbr -e 500 -c 2 -a 0 -i 40 -k AGT
h -t 0.180151329 -s 26 -d -1 -p cbr -e 500 -c 2 -a 0 -i 40 -k AGT
d -t 0.180151329 -s 26 -d -1 -p cbr -e 520 -c 2 -a 0 -i 34 -k RTR
+ -t 0.184151329 -s 26 -d -1 -p cbr -e 500 -c 2 -a 0 -i 41 -k AGT 
- -t 0.184151329 -s 26 -d -1 -p cbr -e 500 -c 2 -a 0 -i 41 -k AGT
h -t 0.184151329 -s 26 -d -1 -p cbr -e 500 -c 2 -a 0 -i 41 -k AGT
d -t 0.184151329 -s 26 -d -1 -p cbr -e 520 -c 2 -a 0 -i 35 -k RTR
+ -t 0.185246899 -s 3 -d -1 -p message -e 90 -c 2 -a 0 -i 39 -k MAC 
- -t 0.185246899 -s 3 -d -1 -p message -e 90 -c 2 -a 0 -i 39 -k MAC
h -t 0.185246899 -s 3 -d -1 -p message -e 90 -c 2 -a 0 -i 39 -k MAC
r -t 0.185966899 -s 2 -d -1 -p message -e 32 -c 2 -a 0 -i 39 -k MAC
r -t 0.185966899 -s 1 -d -1 -p message -e 32 -c 2 -a 0 -i 39 -k MAC
r -t 0.185966899 -s 0 -d -1 -p message -e 32 -c 2 -a 0 -i 39 -k MAC
r -t 0.185966899 -s 4 -d -1 -p message -e 32 -c 2 -a 0 -i 39 -k MAC
r -t 0.185966899 -s 5 -d -1 -p message -e 32 -c 2 -a 0 -i 39 -k MAC
r -t 0.185966899 -s 6 -d -1 -p message -e 32 -c 2 -a 0 -i 39 -k MAC
r -t 0.185966899 -s 7 -d -1 -p message -e 32 -c 2 -a 0 -i 39 -k MAC
r -t 0.185966906 -s 8 -d -1 -p message -e 32 -c 2 -a 0 -i 39 -k MAC
r -t 0.185966906 -s 9 -d -1 -p message -e 32 -c 2 -a 0 -i 39 -k MAC
r -t 0.185966906 -s 10 -d -1 -p message -e 32 -c 2 -a 0 -i 39 -k MAC
r -t 0.185966906 -s 11 -d -1 -p message -e 32 -c 2 -a 0 -i 39 -k MAC
r -t 0.185966906 -s 12 -d -1 -p message -e 32 -c 2 -a 0 -i 39 -k MAC
r -t 0.185966906 -s 13 -d -1 -p message -e 32 -c 2 -a 0 -i 39 -k MAC
r -t 0.185966906 -s 14 -d -1 -p message -e 32 -c 2 -a 0 -i 39 -k MAC
r -t 0.185966906 -s 15 -d -1 -p message -e 32 -c 2 -a 0 -i 39 -k MAC
r -t 0.185966913 -s 16 -d -1 -p message -e 32 -c 2 -a 0 -i 39 -k MAC
r -t 0.185966913 -s 17 -d -1 -p message -e 32 -c 2 -a 0 -i 39 -k MAC
r -t 0.185966913 -s 18 -d -1 -p message -e 32 -c 2 -a 0 -i 39 -k MAC
r -t 0.185966913 -s 19 -d -1 -p message -e 32 -c 2 -a 0 -i 39 -k MAC
r -t 0.185966913 -s 20 -d -1 -p message -e 32 -c 2 -a 0 -i 39 -k MAC
r -t 0.185966913 -s 21 -d -1 -p message -e 32 -c 2 -a 0 -i 39 -k MAC
r -t 0.185966913 -s 22 -d -1 -p message -e 32 -c 2 -a 0 -i 39 -k MAC
r -t 0.185966913 -s 23 -d -1 -p message -e 32 -c 2 -a 0 -i 39 -k MAC
r -t 0.185966919 -s 24 -d -1 -p message -e 32 -c 2 -a 0 -i 39 -k MAC
r -t 0.185966919 -s 25 -d -1 -p message -e 32 -c 2 -a 0 -i 39 -k MAC
r -t 0.185966919 -s 26 -d -1 -p message -e 32 -c 2 -a 0 -i 39 -k MAC
r -t 0.185966919 -s 27 -d -1 -p message -e 32 -c 2 -a 0 -i 39 -k MAC
r -t 0.185966919 -s 28 -d -1 -p message -e 32 -c 2 -a 0 -i 39 -k MAC
r -t 0.185966919 -s 29 -d -1 -p message -e 32 -c 2 -a 0 -i 39 -k MAC
r -t 0.185966919 -s 30 -d -1 -p message -e 32 -c 2 -a 0 -i 39 -k MAC
r -t 0.185966919 -s 31 -d -1 -p message -e 32 -c 2 -a 0 -i 39 -k MAC
r -t 0.185966926 -s 32 -d -1 -p message -e 32 -c 2 -a 0 -i 39 -k MAC
r -t 0.185966926 -s 33 -d -1 -p message -e 32 -c 2 -a 0 -i 39 -k MAC
r -t 0.185966926 -s 34 -d -1 -p message -e 32 -c 2 -a 0 -i 39 -k MAC
r -t 0.185966926 -s 35 -d -1 -p message -e 32 -c 2 -a 0 -i 39 -k MAC
r -t 0.185966926 -s 36 -d -1 -p message -e 32 -c 2 -a 0 -i 39 -k MAC
r -t 0.185966926 -s 37 -d -1 -p message -e 32 -c 2 -a 0 -i 39 -k MAC
r -t 0.185966926 -s 38 -d -1 -p message -e 32 -c 2 -a 0 -i 39 -k MAC
r -t 0.185966926 -s 39 -d -1 -p message -e 32 -c 2 -a 0 -i 39 -k MAC
+ -t 0.188151329 -s 26 -d -1 -p cbr -e 500 -c 2 -a 0 -i 42 -k AGT 
- -t 0.188151329 -s 26 -d -1 -p cbr -e 500 -c 2 -a 0 -i 42 -k AGT
h -t 0.188151329 -s 26 -d -1 -p cbr -e 500 -c 2 -a 0 -i 42 -k AGT
d -t 0.188151329 -s 26 -d -1 -p cbr -e 520 -c 2 -a 0 -i 36 -k RTR
+ -t 0.188628284 -s 19 -d -1 -p message -e 90 -c 2 -a 0 -i 43 -k MAC 
- -t 0.188628284 -s 19 -d -1 -p message -e 90 -c 2 -a 0 -i 43 -k MAC
h -t 0.188628284 -s 19 -d -1 -p message -e 90 -c 2 -a 0 -i 43 -k MAC
r -t 0.189348284 -s 18 -d -1 -p message -e 32 -c 2 -a 0 -i 43 -k MAC
r -t 0.189348284 -s 17 -d -1 -p message -e 32 -c 2 -a 0 -i 43 -k MAC
r -t 0.189348284 -s 16 -d -1 -p message -e 32 -c 2 -a 0 -i 43 -k MAC
r -t 0.189348284 -s 20 -d -1 -p message -e 32 -c 2 -a 0 -i 43 -k MAC
r -t 0.189348284 -s 21 -d -1 -p message -e 32 -c 2 -a 0 -i 43 -k MAC
r -t 0.189348284 -s 22 -d -1 -p message -e 32 -c 2 -a 0 -i 43 -k MAC
r -t 0.189348284 -s 23 -d -1 -p message -e 32 -c 2 -a 0 -i 43 -k MAC
r -t 0.189348290 -s 15 -d -1 -p message -e 32 -c 2 -a 0 -i 43 -k MAC
r -t 0.189348290 -s 14 -d -1 -p message -e 32 -c 2 -a 0 -i 43 -k MAC
r -t 0.189348290 -s 13 -d -1 -p message -e 32 -c 2 -a 0 -i 43 -k MAC
r -t 0.189348290 -s 12 -d -1 -p message -e 32 -c 2 -a 0 -i 43 -k MAC
r -t 0.189348290 -s 11 -d -1 -p message -e 32 -c 2 -a 0 -i 43 -k MAC
r -t 0.189348290 -s 10 -d -1 -p message -e 32 -c 2 -a 0 -i 43 -k MAC
r -t 0.189348290 -s 9 -d -1 -p message -e 32 -c 2 -a 0 -i 43 -k MAC
r -t 0.189348290 -s 8 -d -1 -p message -e 32 -c 2 -a 0 -i 43 -k MAC
r -t 0.189348290 -s 24 -d -1 -p message -e 32 -c 2 -a 0 -i 43 -k MAC
r -t 0.189348290 -s 25 -d -1 -p message -e 32 -c 2 -a 0 -i 43 -k MAC
r -t 0.189348290 -s 26 -d -1 -p message -e 32 -c 2 -a 0 -i 43 -k MAC
r -t 0.189348290 -s 27 -d -1 -p message -e 32 -c 2 -a 0 -i 43 -k MAC
r -t 0.189348290 -s 28 -d -1 -p message -e 32 -c 2 -a 0 -i 43 -k MAC
r -t 0.189348290 -s 29 -d -1 -p message -e 32 -c 2 -a 0 -i 43 -k MAC
r -t 0.189348290 -s 30 -d -1 -p message -e 32 -c 2 -a 0 -i 43 -k MAC
r -t 0.189348290 -s 31 -d -1 -p message -e 32 -c 2 -a 0 -i 43 -k MAC
r -t 0.189348297 -s 7 -d -1 -p message -e 32 -c 2 -a 0 -i 43 -k MAC
r -t 0.189348297 -s 6 -d -1 -p message -e 32 -c 2 -a 0 -i 43 -k MAC
r -t 0.189348297 -s 5 -d -1 -p message -e 32 -c 2 -a 0 -i 43 -k MAC
r -t 0.189348297 -s 4 -d -1 -p message -e 32 -c 2 -a 0 -i 43 -k MAC
r -t 0.189348297 -s 3 -d -1 -p message -e 32 -c 2 -a 0 -i 43 -k MAC
r -t 0.189348297 -s 2 -d -1 -p message -e 32 -c 2 -a 0 -i 43 -k MAC
r -t 0.189348297 -s 1 -d -1 -p message -e 32 -c 2 -a 0 -i 43 -k MAC
r -t 0.189348297 -s 0 -d -1 -p message -e 32 -c 2 -a 0 -i 43 -k MAC
r -t 0.189348297 -s 32 -d -1 -p message -e 32 -c 2 -a 0 -i 43 -k MAC
r -t 0.189348297 -s 33 -d -1 -p message -e 32 -c 2 -a 0 -i 43 -k MAC
r -t 0.189348297 -s 34 -d -1 -p message -e 32 -c 2 -a 0 -i 43 -k MAC
r -t 0.189348297 -s 35 -d -1 -p message -e 32 -c 2 -a 0 -i 43 -k MAC
r -t 0.189348297 -s 36 -d -1 -p message -e 32 -c 2 -a 0 -i 43 -k MAC
r -t 0.189348297 -s 37 -d -1 -p message -e 32 -c 2 -a 0 -i 43 -k MAC
r -t 0.189348297 -s 38 -d -1 -p message -e 32 -c 2 -a 0 -i 43 -k MAC
r -t 0.189348297 -s 39 -d -1 -p message -e 32 -c 2 -a 0 -i 43 -k MAC
+ -t 0.192151329 -s 26 -d -1 -p cbr -e 500 -c 2 -a 0 -i 44 -k AGT 
- -t 0.192151329 -s 26 -d -1 -p cbr -e 500 -c 2 -a 0 -i 44 -k AGT
h -t 0.192151329 -s 26 -d -1 -p cbr -e 500 -c 2 -a 0 -i 44 -k AGT
d -t 0.192151329 -s 26 -d -1 -p cbr -e 520 -c 2 -a 0 -i 37 -k RTR
+ -t 0.196151329 -s 26 -d -1 -p cbr -e 500 -c 2 -a 0 -i 45 -k AGT 
- -t 0.196151329 -s 26 -d -1 -p cbr -e 500 -c 2 -a 0 -i 45 -k AGT
h -t 0.196151329 -s 26 -d -1 -p cbr -e 500 -c 2 -a 0 -i 45 -k AGT
d -t 0.196151329 -s 26 -d -1 -p cbr -e 520 -c 2 -a 0 -i 38 -k RTR
+ -t 0.200151329 -s 26 -d -1 -p cbr -e 500 -c 2 -a 0 -i 46 -k AGT 
- -t 0.200151329 -s 26 -d -1 -p cbr -e 500 -c 2 -a 0 -i 46 -k AGT
h -t 0.200151329 -s 26 -d -1 -p cbr -e 500 -c 2 -a 0 -i 46 -k AGT
d -t 0.200151329 -s 26 -d -1 -p cbr -e 520 -c 2 -a 0 -i 40 -k RTR
+ -t 0.204151329 -s 26 -d -1 -p cbr -e 500 -c 2 -a 0 -i 47 -k AGT 
- -t 0.204151329 -s 26 -d -1 -p cbr -e 500 -c 2 -a 0 -i 47 -k AGT
h -t 0.204151329 -s 26 -d -1 -p cbr -e 500 -c 2 -a 0 -i 47 -k AGT
d -t 0.204151329 -s 26 -d -1 -p cbr -e 520 -c 2 -a 0 -i 41 -k RTR
+ -t 0.208151329 -s 26 -d -1 -p cbr -e 500 -c 2 -a 0 -i 48 -k AGT 
- -t 0.208151329 -s 26 -d -1 -p cbr -e 500 -c 2 -a 0 -i 48 -k AGT
h -t 0.208151329 -s 26 -d -1 -p cbr -e 500 -c 2 -a 0 -i 48 -k AGT
d -t 0.208151329 -s 26 -d -1 -p cbr -e 520 -c 2 -a 0 -i 42 -k RTR
+ -t 0.212151329 -s 26 -d -1 -p cbr -e 500 -c 2 -a 0 -i 49 -k AGT 
- -t 0.212151329 -s 26 -d -1 -p cbr -e 500 -c 2 -a 0 -i 49 -k AGT
h -t 0.212151329 -s 26 -d -1 -p cbr -e 500 -c 2 -a 0 -i 49 -k AGT
d -t 0.212151329 -s 26 -d -1 -p cbr -e 520 -c 2 -a 0 -i 44 -k RTR
+ -t 0.216151329 -s 26 -d -1 -p cbr -e 500 -c 2 -a 0 -i 50 -k AGT 
- -t 0.216151329 -s 26 -d -1 -p cbr -e 500 -c 2 -a 0 -i 50 -k AGT
h -t 0.216151329 -s 26 -d -1 -p cbr -e 500 -c 2 -a 0 -i 50 -k AGT
d -t 0.216151329 -s 26 -d -1 -p cbr -e 520 -c 2 -a 0 -i 45 -k RTR
+ -t 0.220151329 -s 26 -d -1 -p cbr -e 500 -c 2 -a 0 -i 52 -k AGT 
- -t 0.220151329 -s 26 -d -1 -p cbr -e 500 -c 2 -a 0 -i 52 -k AGT
h -t 0.220151329 -s 26 -d -1 -p cbr -e 500 -c 2 -a 0 -i 52 -k AGT
d -t 0.220151329 -s 26 -d -1 -p cbr -e 520 -c 2 -a 0 -i 46 -k RTR
+ -t 0.224151329 -s 26 -d -1 -p cbr -e 500 -c 2 -a 0 -i 53 -k AGT 
- -t 0.224151329 -s 26 -d -1 -p cbr -e 500 -c 2 -a 0 -i 53 -k AGT
h -t 0.224151329 -s 26 -d -1 -p cbr -e 500 -c 2 -a 0 -i 53 -k AGT
d -t 0.224151329 -s 26 -d -1 -p cbr -e 520 -c 2 -a 0 -i 47 -k RTR
+ -t 0.228151329 -s 26 -d -1 -p cbr -e 500 -c 2 -a 0 -i 55 -k AGT 
- -t 0.228151329 -s 26 -d -1 -p cbr -e 500 -c 2 -a 0 -i 55 -k AGT
h -t 0.228151329 -s 26 -d -1 -p cbr -e 500 -c 2 -a 0 -i 55 -k AGT
d -t 0.228151329 -s 26 -d -1 -p cbr -e 520 -c 2 -a 0 -i 48 -k RTR
+ -t 0.228180106 -s 36 -d -1 -p message -e 90 -c 2 -a 0 -i 51 -k MAC 
- -t 0.228180106 -s 36 -d -1 -p message -e 90 -c 2 -a 0 -i 51 -k MAC
h -t 0.228180106 -s 36 -d -1 -p message -e 90 -c 2 -a 0 -i 51 -k MAC
r -t 0.228900106 -s 35 -d -1 -p message -e 32 -c 2 -a 0 -i 51 -k MAC
r -t 0.228900106 -s 34 -d -1 -p message -e 32 -c 2 -a 0 -i 51 -k MAC
r -t 0.228900106 -s 33 -d -1 -p message -e 32 -c 2 -a 0 -i 51 -k MAC
r -t 0.228900106 -s 32 -d -1 -p message -e 32 -c 2 -a 0 -i 51 -k MAC
r -t 0.228900106 -s 37 -d -1 -p message -e 32 -c 2 -a 0 -i 51 -k MAC
r -t 0.228900106 -s 38 -d -1 -p message -e 32 -c 2 -a 0 -i 51 -k MAC
r -t 0.228900106 -s 39 -d -1 -p message -e 32 -c 2 -a 0 -i 51 -k MAC