s 0.010796804 _0_ MAC  --- 0 message 90 [0 ffffffff 0 800] [energy 1000.000000 ei 0.000 es 0.000 et 0.000 er 0.000] ------- [0:255 -1:255 32 0] 
N -t 0.010797 -n 1 -e 999.989490
N -t 0.010797 -n 2 -e 999.989490
N -t 0.010797 -n 3 -e 999.989490
N -t 0.010797 -n 4 -e 999.989490
N -t 0.010797 -n 5 -e 999.989490
N -t 0.010797 -n 6 -e 999.989490
N -t 0.010797 -n 7 -e 999.989490
N -t 0.010797 -n 8 -e 999.989490
N -t 0.010797 -n 9 -e 999.989490
N -t 0.010797 -n 10 -e 999.989490
N -t 0.010797 -n 11 -e 999.989490
N -t 0.010797 -n 12 -e 999.989490
N -t 0.010797 -n 13 -e 999.989490
N -t 0.010797 -n 14 -e 999.989490
N -t 0.010797 -n 15 -e 999.989490
N -t 0.010797 -n 16 -e 999.989490
N -t 0.010797 -n 17 -e 999.989490
N -t 0.010797 -n 18 -e 999.989490
N -t 0.010797 -n 19 -e 999.989490
N -t 0.010797 -n 20 -e 999.989490
N -t 0.010797 -n 21 -e 999.989490
N -t 0.010797 -n 22 -e 999.989490
N -t 0.010797 -n 23 -e 999.989490
N -t 0.010797 -n 24 -e 999.989490
N -t 0.010797 -n 25 -e 999.989490
N -t 0.010797 -n 26 -e 999.989490
N -t 0.010797 -n 27 -e 999.989490
N -t 0.010797 -n 28 -e 999.989490
N -t 0.010797 -n 29 -e 999.989490
N -t 0.010797 -n 30 -e 999.989490
N -t 0.010797 -n 31 -e 999.989490
N -t 0.010797 -n 32 -e 999.989490
N -t 0.010797 -n 33 -e 999.989490
N -t 0.010797 -n 34 -e 999.989490
N -t 0.010797 -n 35 -e 999.989490
N -t 0.010797 -n 36 -e 999.989490
N -t 0.010797 -n 37 -e 999.989490
N -t 0.010797 -n 38 -e 999.989490
N -t 0.010797 -n 39 -e 999.989490
r 0.011516804 _1_ MAC  --- 0 message 32 [0 ffffffff 0 800] [energy 999.989490 ei 0.009 es 0.000 et 0.000 er 0.001] ------- [0:255 -1:255 32 0] 
r 0.011516804 _2_ MAC  --- 0 message 32 [0 ffffffff 0 800] [energy 999.989490 ei 0.009 es 0.000 et 0.000 er 0.001] ------- [0:255 -1:255 32 0] 
r 0.011516804 _3_ MAC  --- 0 message 32 [0 ffffffff 0 800] [energy 999.989490 ei 0.009 es 0.000 et 0.000 er 0.001] ------- [0:255 -1:255 32 0] 
r 0.011516804 _4_ MAC  --- 0 message 32 [0 ffffffff 0 800] [energy 999.989490 ei 0.009 es 0.000 et 0.000 er 0.001] ------- [0:255 -1:255 32 0] 
r 0.011516804 _5_ MAC  --- 0 message 32 [0 ffffffff 0 800] [energy 999.989490 ei 0.009 es 0.000 et 0.000 er 0.001] ------- [0:255 -1:255 32 0] 
r 0.011516804 _6_ MAC  --- 0 message 32 [0 ffffffff 0 800] [energy 999.989490 ei 0.009 es 0.000 et 0.000 er 0.001] ------- [0:255 -1:255 32 0] 
r 0.011516804 _7_ MAC  --- 0 message 32 [0 ffffffff 0 800] [energy 999.989490 ei 0.009 es 0.000 et 0.000 er 0.001] ------- [0:255 -1:255 32 0] 
r 0.011516811 _8_ MAC  --- 0 message 32 [0 ffffffff 0 800] [energy 999.989490 ei 0.009 es 0.000 et 0.000 er 0.001] ------- [0:255 -1:255 32 0] 
r 0.011516811 _9_ MAC  --- 0 message 32 [0 ffffffff 0 800] [energy 999.989490 ei 0.009 es 0.000 et 0.000 er 0.001] ------- [0:255 -1:255 32 0] 
r 0.011516811 _10_ MAC  --- 0 message 32 [0 ffffffff 0 800] [energy 999.989490 ei 0.009 es 0.000 et 0.000 er 0.001] ------- [0:255 -1:255 32 0] 
r 0.011516811 _11_ MAC  --- 0 message 32 [0 ffffffff 0 800] [energy 999.989490 ei 0.009 es 0.000 et 0.000 er 0.001] ------- [0:255 -1:255 32 0] 
r 0.011516811 _12_ MAC  --- 0 message 32 [0 ffffffff 0 800] [energy 999.989490 ei 0.009 es 0.000 et 0.000 er 0.001] ------- [0:255 -1:255 32 0] 
r 0.011516811 _13_ MAC  --- 0 message 32 [0 ffffffff 0 800] [energy 999.989490 ei 0.009 es 0.000 et 0.000 er 0.001] ------- [0:255 -1:255 32 0] 
r 0.011516811 _14_ MAC  --- 0 message 32 [0 ffffffff 0 800] [energy 999.989490 ei 0.009 es 0.000 et 0.000 er 0.001] ------- [0:255 -1:255 32 0] 
r 0.011516811 _15_ MAC  --- 0 message 32 [0 ffffffff 0 800] [energy 999.989490 ei 0.009 es 0.000 et 0.000 er 0.001] ------- [0:255 -1:255 32 0] 
r 0.011516817 _16_ MAC  --- 0 message 32 [0 ffffffff 0 800] [energy 999.989490 ei 0.009 es 0.000 et 0.000 er 0.001] ------- [0:255 -1:255 32 0] 
r 0.011516817 _17_ MAC  --- 0 message 32 [0 ffffffff 0 800] [energy 999.989490 ei 0.009 es 0.000 et 0.000 er 0.001] ------- [0:255 -1:255 32 0] 
r 0.011516817 _18_ MAC  --- 0 message 32 [0 ffffffff 0 800] [energy 999.989490 ei 0.009 es 0.000 et 0.000 er 0.001] ------- [0:255 -1:255 32 0] 
r 0.011516817 _19_ MAC  --- 0 message 32 [0 ffffffff 0 800] [energy 999.989490 ei 0.009 es 0.000 et 0.000 er 0.001] ------- [0:255 -1:255 32 0] 
r 0.011516817 _20_ MAC  --- 0 message 32 [0 ffffffff 0 800] [energy 999.989490 ei 0.009 es 0.000 et 0.000 er 0.001] ------- [0:255 -1:255 32 0] 
r 0.011516817 _21_ MAC  --- 0 message 32 [0 ffffffff 0 800] [energy 999.989490 ei 0.009 es 0.000 et 0.000 er 0.001] ------- [0:255 -1:255 32 0] 
r 0.011516817 _22_ MAC  --- 0 message 32 [0 ffffffff 0 800] [energy 999.989490 ei 0.009 es 0.000 et 0.000 er 0.001] ------- [0:255 -1:255 32 0] 
r 0.011516817 _23_ MAC  --- 0 message 32 [0 ffffffff 0 800] [energy 999.989490 ei 0.009 es 0.000 et 0.000 er 0.001] ------- [0:255 -1:255 32 0] 
r 0.011516824 _24_ MAC  --- 0 message 32 [0 ffffffff 0 800] [energy 999.989490 ei 0.009 es 0.000 et 0.000 er 0.001] ------- [0:255 -1:255 32 0] 
r 0.011516824 _25_ MAC  --- 0 message 32 [0 ffffffff 0 800] [energy 999.989490 ei 0.009 es 0.000 et 0.000 er 0.001] ------- [0:255 -1:255 32 0] 
r 0.011516824 _26_ MAC  --- 0 message 32 [0 ffffffff 0 800] [energy 999.989490 ei 0.009 es 0.000 et 0.000 er 0.001] ------- [0:255 -1:255 32 0] 
r 0.011516824 _27_ MAC  --- 0 message 32 [0 ffffffff 0 800] [energy 999.989490 ei 0.009 es 0.000 et 0.000 er 0.001] ------- [0:255 -1:255 32 0] 
r 0.011516824 _28_ MAC  --- 0 message 32 [0 ffffffff 0 800] [energy 999.989490 ei 0.009 es 0.000 et 0.000 er 0.001] ------- [0:255 -1:255 32 0] 
r 0.011516824 _29_ MAC  --- 0 message 32 [0 ffffffff 0 800] [energy 999.989490 ei 0.009 es 0.000 et 0.000 er 0.001] ------- [0:255 -1:255 32 0] 
r 0.011516824 _30_ MAC  --- 0 message 32 [0 ffffffff 0 800] [energy 999.989490 ei 0.009 es 0.000 et 0.000 er 0.001] ------- [0:255 -1:255 32 0] 
r 0.011516824 _31_ MAC  --- 0 message 32 [0 ffffffff 0 800] [energy 999.989490 ei 0.009 es 0.000 et 0.000 er 0.001] ------- [0:255 -1:255 32 0] 
r 0.011516831 _32_ MAC  --- 0 message 32 [0 ffffffff 0 800] [energy 999.989490 ei 0.009 es 0.000 et 0.000 er 0.001] ------- [0:255 -1:255 32 0] 
r 0.011516831 _33_ MAC  --- 0 message 32 [0 ffffffff 0 800] [energy 999.989490 ei 0.009 es 0.000 et 0.000 er 0.001] ------- [0:255 -1:255 32 0] 
r 0.011516831 _34_ MAC  --- 0 message 32 [0 ffffffff 0 800] [energy 999.989490 ei 0.009 es 0.000 et 0.000 er 0.001] ------- [0:255 -1:255 32 0] 
r 0.011516831 _35_ MAC  --- 0 message 32 [0 ffffffff 0 800] [energy 999.989490 ei 0.009 es 0.000 et 0.000 er 0.001] ------- [0:255 -1:255 32 0] 
r 0.011516831 _36_ MAC  --- 0 message 32 [0 ffffffff 0 800] [energy 999.989490 ei 0.009 es 0.000 et 0.000 er 0.001] ------- [0:255 -1:255 32 0] 
r 0.011516831 _37_ MAC  --- 0 message 32 [0 ffffffff 0 800] [energy 999.989490 ei 0.009 es 0.000 et 0.000 er 0.001] ------- [0:255 -1:255 32 0] 
r 0.011516831 _38_ MAC  --- 0 message 32 [0 ffffffff 0 800] [energy 999.989490 ei 0.009 es 0.000 et 0.000 er 0.001] ------- [0:255 -1:255 32 0] 
r 0.011516831 _39_ MAC  --- 0 message 32 [0 ffffffff 0 800] [energy 999.989490 ei 0.009 es 0.000 et 0.000 er 0.001] ------- [0:255 -1:255 32 0] 
s 0.029092405 _2_ MAC  --- 1 message 90 [0 ffffffff 2 800] [energy 999.989490 ei 0.009 es 0.000 et 0.000 er 0.001] ------- [2:255 -1:255 32 0] 
N -t 0.029092 -n 1 -e 999.973086
N -t 0.029092 -n 0 -e 999.973000
N -t 0.029092 -n 3 -e 999.973086
N -t 0.029092 -n 4 -e 999.973086
N -t 0.029092 -n 5 -e 999.973086
N -t 0.029092 -n 6 -e 999.973086
N -t 0.029092 -n 7 -e 999.973086
N -t 0.029092 -n 8 -e 999.973086
N -t 0.029092 -n 9 -e 999.973086
N -t 0.029092 -n 10 -e 999.973086
N -t 0.029092 -n 11 -e 999.973086
N -t 0.029092 -n 12 -e 999.973086
N -t 0.029092 -n 13 -e 999.973086
N -t 0.029092 -n 14 -e 999.973086
N -t 0.029092 -n 15 -e 999.973086
N -t 0.029092 -n 16 -e 999.973086
N -t 0.029092 -n 17 -e 999.973086
N -t 0.029092 -n 18 -e 999.973086
N -t 0.029092 -n 19 -e 999.973086
N -t 0.029092 -n 20 -e 999.973086
N -t 0.029092 -n 21 -e 999.973086
N -t 0.029092 -n 22 -e 999.973086
N -t 0.029092 -n 23 -e 999.973086
N -t 0.029092 -n 24 -e 999.973086
N -t 0.029092 -n 25 -e 999.973086
N -t 0.029092 -n 26 -e 999.973086
N -t 0.029092 -n 27 -e 999.973086
N -t 0.029092 -n 28 -e 999.973086
N -t 0.029092 -n 29 -e 999.973086
N -t 0.029092 -n 30 -e 999.973086
N -t 0.029092 -n 31 -e 999.973086
N -t 0.029092 -n 32 -e 999.973086
N -t 0.029092 -n 33 -e 999.973086
N -t 0.029092 -n 34 -e 999.973086
N -t 0.029092 -n 35 -e 999.973086
N -t 0.029092 -n 36 -e 999.973086
N -t 0.029092 -n 37 -e 999.973086
N -t 0.029092 -n 38 -e 999.973086
N -t 0.029092 -n 39 -e 999.973086
r 0.029812405 _1_ MAC  --- 1 message 32 [0 ffffffff 2 800] [energy 999.973086 ei 0.025 es 0.000 et 0.000 er 0.002] ------- [2:255 -1:255 32 0] 
r 0.029812405 _0_ MAC  --- 1 message 32 [0 ffffffff 2 800] [energy 999.973000 ei 0.025 es 0.000 et 0.001 er 0.001] ------- [2:255 -1:255 32 0] 
r 0.029812405 _3_ MAC  --- 1 message 32 [0 ffffffff 2 800] [energy 999.973086 ei 0.025 es 0.000 et 0.000 er 0.002] ------- [2:255 -1:255 32 0] 
r 0.029812405 _4_ MAC  --- 1 message 32 [0 ffffffff 2 800] [energy 999.973086 ei 0.025 es 0.000 et 0.000 er 0.002] ------- [2:255 -1:255 32 0] 
r 0.029812405 _5_ MAC  --- 1 message 32 [0 ffffffff 2 800] [energy 999.973086 ei 0.025 es 0.000 et 0.000 er 0.002] ------- [2:255 -1:255 32 0] 
r 0.029812405 _6_ MAC  --- 1 message 32 [0 ffffffff 2 800] [energy 999.973086 ei 0.025 es 0.000 et 0.000 er 0.002] ------- [2:255 -1:255 32 0] 
r 0.029812405 _7_ MAC  --- 1 message 32 [0 ffffffff 2 800] [energy 999.973086 ei 0.025 es 0.000 et 0.000 er 0.002] ------- [2:255 -1:255 32 0] 
r 0.029812411 _8_ MAC  --- 1 message 32 [0 ffffffff 2 800] [energy 999.973086 ei 0.025 es 0.000 et 0.000 er 0.002] ------- [2:255 -1:255 32 0] 
r 0.029812411 _9_ MAC  --- 1 message 32 [0 ffffffff 2 800] [energy 999.973086 ei 0.025 es 0.000 et 0.000 er 0.002] ------- [2:255 -1:255 32 0] 
r 0.029812411 _10_ MAC  --- 1 message 32 [0 ffffffff 2 800] [energy 999.973086 ei 0.025 es 0.000 et 0.000 er 0.002] ------- [2:255 -1:255 32 0] 
r 0.029812411 _11_ MAC  --- 1 message 32 [0 ffffffff 2 800] [energy 999.973086 ei 0.025 es 0.000 et 0.000 er 0.002] ------- [2:255 -1:255 32 0] 
r 0.029812411 _12_ MAC  --- 1 message 32 [0 ffffffff 2 800] [energy 999.973086 ei 0.025 es 0.000 et 0.000 er 0.002] ------- [2:255 -1:255 32 0] 
r 0.029812411 _13_ MAC  --- 1 message 32 [0 ffffffff 2 800] [energy 999.973086 ei 0.025 es 0.000 et 0.000 er 0.002] ------- [2:255 -1:255 32 0] 
r 0.029812411 _14_ MAC  --- 1 message 32 [0 ffffffff 2 800] [energy 999.973086 ei 0.025 es 0.000 et 0.000 er 0.002] ------- [2:255 -1:255 32 0] 
r 0.029812411 _15_ MAC  --- 1 message 32 [0 ffffffff 2 800] [energy 999.973086 ei 0.025 es 0.000 et 0.000 er 0.002] ------- [2:255 -1:255 32 0] 
r 0.029812418 _16_ MAC  --- 1 message 32 [0 ffffffff 2 800] [energy 999.973086 ei 0.025 es 0.000 et 0.000 er 0.002] ------- [2:255 -1:255 32 0] 
r 0.029812418 _17_ MAC  --- 1 message 32 [0 ffffffff 2 800] [energy 999.973086 ei 0.025 es 0.000 et 0.000 er 0.002] ------- [2:255 -1:255 32 0] 
r 0.029812418 _18_ MAC  --- 1 message 32 [0 ffffffff 2 800] [energy 999.973086 ei 0.025 es 0.000 et 0.000 er 0.002] ------- [2:255 -1:255 32 0] 
r 0.029812418 _19_ MAC  --- 1 message 32 [0 ffffffff 2 800] [energy 999.973086 ei 0.025 es 0.000 et 0.000 er 0.002] ------- [2:255 -1:255 32 0] 
r 0.029812418 _20_ MAC  --- 1 message 32 [0 ffffffff 2 800] [energy 999.973086 ei 0.025 es 0.000 et 0.000 er 0.002] ------- [2:255 -1:255 32 0] 
r 0.029812418 _21_ MAC  --- 1 message 32 [0 ffffffff 2 800] [energy 999.973086 ei 0.025 es 0.000 et 0.000 er 0.002] ------- [2:255 -1:255 32 0] 
r 0.029812418 _22_ MAC  --- 1 message 32 [0 ffffffff 2 800] [energy 999.973086 ei 0.025 es 0.000 et 0.000 er 0.002] ------- [2:255 -1:255 32 0] 
r 0.029812418 _23_ MAC  --- 1 message 32 [0 ffffffff 2 800] [energy 999.973086 ei 0.025 es 0.000 et 0.000 er 0.002] ------- [2:255 -1:255 32 0] 
r 0.029812425 _24_ MAC  --- 1 message 32 [0 ffffffff 2 800] [energy 999.973086 ei 0.025 es 0.000 et 0.000 er 0.002] ------- [2:255 -1:255 32 0] 
r 0.029812425 _25_ MAC  --- 1 message 32 [0 ffffffff 2 800] [energy 999.973086 ei 0.025 es 0.000 et 0.000 er 0.002] ------- [2:255 -1:255 32 0] 
r 0.029812425 _26_ MAC  --- 1 message 32 [0 ffffffff 2 800] [energy 999.973086 ei 0.025 es 0.000 et 0.000 er 0.002] ------- [2:255 -1:255 32 0] 
r 0.029812425 _27_ MAC  --- 1 message 32 [0 ffffffff 2 800] [energy 999.973086 ei 0.025 es 0.000 et 0.000 er 0.002] ------- [2:255 -1:255 32 0] 
r 0.029812425 _28_ MAC  --- 1 message 32 [0 ffffffff 2 800] [energy 999.973086 ei 0.025 es 0.000 et 0.000 er 0.002] ------- [2:255 -1:255 32 0] 
r 0.029812425 _29_ MAC  --- 1 message 32 [0 ffffffff 2 800] [energy 999.973086 ei 0.025 es 0.000 et 0.000 er 0.002] ------- [2:255 -1:255 32 0] 
r 0.029812425 _30_ MAC  --- 1 message 32 [0 ffffffff 2 800] [energy 999.973086 ei 0.025 es 0.000 et 0.000 er 0.002] ------- [2:255 -1:255 32 0] 
r 0.029812425 _31_ MAC  --- 1 message 32 [0 ffffffff 2 800] [energy 999.973086 ei 0.025 es 0.000 et 0.000 er 0.002] ------- [2:255 -1:255 32 0] 
r 0.029812431 _32_ MAC  --- 1 message 32 [0 ffffffff 2 800] [energy 999.973086 ei 0.025 es 0.000 et 0.000 er 0.002] ------- [2:255 -1:255 32 0] 
r 0.029812431 _33_ MAC  --- 1 message 32 [0 ffffffff 2 800] [energy 999.973086 ei 0.025 es 0.000 et 0.000 er 0.002] ------- [2:255 -1:255 32 0] 
r 0.029812431 _34_ MAC  --- 1 message 32 [0 ffffffff 2 800] [energy 999.973086 ei 0.025 es 0.000 et 0.000 er 0.002] ------- [2:255 -1:255 32 0] 
r 0.029812431 _35_ MAC  --- 1 message 32 [0 ffffffff 2 800] [energy 999.973086 ei 0.025 es 0.000 et 0.000 er 0.002] ------- [2:255 -1:255 32 0] 
r 0.029812431 _36_ MAC  --- 1 message 32 [0 ffffffff 2 800] [energy 999.973086 ei 0.025 es 0.000 et 0.000 er 0.002] ------- [2:255 -1:255 32 0] 
r 0.029812431 _37_ MAC  --- 1 message 32 [0 ffffffff 2 800] [energy 999.973086 ei 0.025 es 0.000 et 0.000 er 0.002] ------- [2:255 -1:255 32 0] 
r 0.029812431 _38_ MAC  --- 1 message 32 [0 ffffffff 2 800] [energy 999.973086 ei 0.025 es 0.000 et 0.000 er 0.002] ------- [2:255 -1:255 32 0] 
r 0.029812431 _39_ MAC  --- 1 message 32 [0 ffffffff 2 800] [energy 999.973086 ei 0.025 es 0.000 et 0.000 er 0.002] ------- [2:255 -1:255 32 0] 
s 0.092830354 _13_ MAC  --- 2 message 90 [0 ffffffff d 800] [energy 999.973086 ei 0.025 es 0.000 et 0.000 er 0.002] ------- [13:255 -1:255 32 0] 
N -t 0.092830 -n 12 -e 999.917174
N -t 0.092830 -n 11 -e 999.917174
N -t 0.092830 -n 10 -e 999.917174
N -t 0.092830 -n 9 -e 999.917174
N -t 0.092830 -n 8 -e 999.917174
N -t 0.092830 -n 14 -e 999.917174
N -t 0.092830 -n 15 -e 999.917174
N -t 0.092830 -n 7 -e 999.917174
N -t 0.092830 -n 6 -e 999.917174
N -t 0.092830 -n 5 -e 999.917174
N -t 0.092830 -n 4 -e 999.917174
N -t 0.092830 -n 3 -e 999.917174
N -t 0.092830 -n 2 -e 999.917089
N -t 0.092830 -n 1 -e 999.917174
N -t 0.092830 -n 0 -e 999.917089
N -t 0.092830 -n 16 -e 999.917174
N -t 0.092830 -n 17 -e 999.917174
N -t 0.092830 -n 18 -e 999.917174
N -t 0.092830 -n 19 -e 999.917174
N -t 0.092830 -n 20 -e 999.917174
N -t 0.092830 -n 21 -e 999.917174
N -t 0.092830 -n 22 -e 999.917174
N -t 0.092830 -n 23 -e 999.917174
N -t 0.092830 -n 24 -e 999.917174
N -t 0.092830 -n 25 -e 999.917174
N -t 0.092830 -n 26 -e 999.917174
N -t 0.092830 -n 27 -e 999.917174
N -t 0.092830 -n 28 -e 999.917174
N -t 0.092830 -n 29 -e 999.917174
N -t 0.092830 -n 30 -e 999.917174
N -t 0.092830 -n 31 -e 999.917174
N -t 0.092830 -n 32 -e 999.917174
N -t 0.092830 -n 33 -e 999.917174
N -t 0.092830 -n 34 -e 999.917174
N -t 0.092830 -n 35 -e 999.917174
N -t 0.092830 -n 36 -e 999.917174
N -t 0.092830 -n 37 -e 999.917174
N -t 0.092830 -n 38 -e 999.917174
N -t 0.092830 -n 39 -e 999.917174
r 0.093550354 _12_ MAC  --- 2 message 32 [0 ffffffff d 800] [energy 999.917174 ei 0.079 es 0.000 et 0.000 er 0.003] ------- [13:255 -1:255 32 0] 
r 0.093550354 _11_ MAC  --- 2 message 32 [0 ffffffff d 800] [energy 999.917174 ei 0.079 es 0.000 et 0.000 er 0.003] ------- [13:255 -1:255 32 0] 
r 0.093550354 _10_ MAC  --- 2 message 32 [0 ffffffff d 800] [energy 999.917174 ei 0.079 es 0.000 et 0.000 er 0.003] ------- [13:255 -1:255 32 0] 
r 0.093550354 _9_ MAC  --- 2 message 32 [0 ffffffff d 800] [energy 999.917174 ei 0.079 es 0.000 et 0.000 er 0.003] ------- [13:255 -1:255 32 0] 
r 0.093550354 _8_ MAC  --- 2 message 32 [0 ffffffff d 800] [energy 999.917174 ei 0.079 es 0.000 et 0.000 er 0.003] ------- [13:255 -1:255 32 0] 
r 0.093550354 _14_ MAC  --- 2 message 32 [0 ffffffff d 800] [energy 999.917174 ei 0.079 es 0.000 et 0.000 er 0.003] ------- [13:255 -1:255 32 0] 
r 0.093550354 _15_ MAC  --- 2 message 32 [0 ffffffff d 800] [energy 999.917174 ei 0.079 es 0.000 et 0.000 er 0.003] ------- [13:255 -1:255 32 0] 
r 0.093550361 _7_ MAC  --- 2 message 32 [0 ffffffff d 800] [energy 999.917174 ei 0.079 es 0.000 et 0.000 er 0.003] ------- [13:255 -1:255 32 0] 
r 0.093550361 _6_ MAC  --- 2 message 32 [0 ffffffff d 800] [energy 999.917174 ei 0.079 es 0.000 et 0.000 er 0.003] ------- [13:255 -1:255 32 0] 
r 0.093550361 _5_ MAC  --- 2 message 32 [0 ffffffff d 800] [energy 999.917174 ei 0.079 es 0.000 et 0.000 er 0.003] ------- [13:255 -1:255 32 0] 
r 0.093550361 _4_ MAC  --- 2 message 32 [0 ffffffff d 800] [energy 999.917174 ei 0.079 es 0.000 et 0.000 er 0.003] ------- [13:255 -1:255 32 0] 
r 0.093550361 _3_ MAC  --- 2 message 32 [0 ffffffff d 800] [energy 999.917174 ei 0.079 es 0.000 et 0.000 er 0.003] ------- [13:255 -1:255 32 0] 
r 0.093550361 _2_ MAC  --- 2 message 32 [0 ffffffff d 800] [energy 999.917089 ei 0.079 es 0.000 et 0.001 er 0.002] ------- [13:255 -1:255 32 0] 
r 0.093550361 _1_ MAC  --- 2 message 32 [0 ffffffff d 800] [energy 999.917174 ei 0.079 es 0.000 et 0.000 er 0.003] ------- [13:255 -1:255 32 0] 
r 0.093550361 _0_ MAC  --- 2 message 32 [0 ffffffff d 800] [energy 999.917089 ei 0.079 es 0.000 et 0.001 er 0.002] ------- [13:255 -1:255 32 0] 
r 0.093550361 _16_ MAC  --- 2 message 32 [0 ffffffff d 800] [energy 999.917174 ei 0.079 es 0.000 et 0.000 er 0.003] ------- [13:255 -1:255 32 0] 
r 0.093550361 _17_ MAC  --- 2 message 32 [0 ffffffff d 800] [energy 999.917174 ei 0.079 es 0.000 et 0.000 er 0.003] ------- [13:255 -1:255 32 0] 
r 0.093550361 _18_ MAC  --- 2 message 32 [0 ffffffff d 800] [energy 999.917174 ei 0.079 es 0.000 et 0.000 er 0.003] ------- [13:255 -1:255 32 0] 
r 0.093550361 _19_ MAC  --- 2 message 32 [0 ffffffff d 800] [energy 999.917174 ei 0.079 es 0.000 et 0.000 er 0.003] ------- [13:255 -1:255 32 0] 
r 0.093550361 _20_ MAC  --- 2 message 32 [0 ffffffff d 800] [energy 999.917174 ei 0.079 es 0.000 et 0.000 er 0.003] ------- [13:255 -1:255 32 0] 
r 0.093550361 _21_ MAC  --- 2 message 32 [0 ffffffff d 800] [energy 999.917174 ei 0.079 es 0.000 et 0.000 er 0.003] ------- [13:255 -1:255 32 0] 
r 0.093550361 _22_ MAC  --- 2 message 32 [0 ffffffff d 800] [energy 999.917174 ei 0.079 es 0.000 et 0.000 er 0.003] ------- [13:255 -1:255 32 0] 
r 0.093550361 _23_ MAC  --- 2 message 32 [0 ffffffff d 800] [energy 999.917174 ei 0.079 es 0.000 et 0.000 er 0.003] ------- [13:255 -1:255 32 0] 
r 0.093550368 _24_ MAC  --- 2 message 32 [0 ffffffff d 800] [energy 999.917174 ei 0.079 es 0.000 et 0.000 er 0.003] ------- [13:255 -1:255 32 0] 
r 0.093550368 _25_ MAC  --- 2 message 32 [0 ffffffff d 800] [energy 999.917174 ei 0.079 es 0.000 et 0.000 er 0.003] ------- [13:255 -1:255 32 0] 
r 0.093550368 _26_ MAC  --- 2 message 32 [0 ffffffff d 800] [energy 999.917174 ei 0.079 es 0.000 et 0.000 er 0.003] ------- [13:255 -1:255 32 0] 
r 0.093550368 _27_ MAC  --- 2 message 32 [0 ffffffff d 800] [energy 999.917174 ei 0.079 es 0.000 et 0.000 er 0.003] ------- [13:255 -1:255 32 0] 
r 0.093550368 _28_ MAC  --- 2 message 32 [0 ffffffff d 800] [energy 999.917174 ei 0.079 es 0.000 et 0.000 er 0.003] ------- [13:255 -1:255 32 0] 
r 0.093550368 _29_ MAC  --- 2 message 32 [0 ffffffff d 800] [energy 999.917174 ei 0.079 es 0.000 et 0.000 er 0.003] ------- [13:255 -1:255 32 0] 
r 0.093550368 _30_ MAC  --- 2 message 32 [0 ffffffff d 800] [energy 999.917174 ei 0.079 es 0.000 et 0.000 er 0.003] ------- [13:255 -1:255 32 0] 
r 0.093550368 _31_ MAC  --- 2 message 32 [0 ffffffff d 800] [energy 999.917174 ei 0.079 es 0.000 et 0.000 er 0.003] ------- [13:255 -1:255 32 0] 
r 0.093550374 _32_ MAC  --- 2 message 32 [0 ffffffff d 800] [energy 999.917174 ei 0.079 es 0.000 et 0.000 er 0.003] ------- [13:255 -1:255 32 0] 
r 0.093550374 _33_ MAC  --- 2 message 32 [0 ffffffff d 800] [energy 999.917174 ei 0.079 es 0.000 et 0.000 er 0.003] ------- [13:255 -1:255 32 0] 
r 0.093550374 _34_ MAC  --- 2 message 32 [0 ffffffff d 800] [energy 999.917174 ei 0.079 es 0.000 et 0.000 er 0.003] ------- [13:255 -1:255 32 0] 
r 0.093550374 _35_ MAC  --- 2 message 32 [0 ffffffff d 800] [energy 999.917174 ei 0.079 es 0.000 et 0.000 er 0.003] ------- [13:255 -1:255 32 0] 
r 0.093550374 _36_ MAC  --- 2 message 32 [0 ffffffff d 800] [energy 999.917174 ei 0.079 es 0.000 et 0.000 er 0.003] ------- [13:255 -1:255 32 0] 
r 0.093550374 _37_ MAC  --- 2 message 32 [0 ffffffff d 800] [energy 999.917174 ei 0.079 es 0.000 et 0.000 er 0.003] ------- [13:255 -1:255 32 0] 
r 0.093550374 _38_ MAC  --- 2 message 32 [0 ffffffff d 800] [energy 999.917174 ei 0.079 es 0.000 et 0.000 er 0.003] ------- [13:255 -1:255 32 0] 
r 0.093550374 _39_ MAC  --- 2 message 32 [0 ffffffff d 800] [energy 999.917174 ei 0.079 es 0.000 et 0.000 er 0.003] ------- [13:255 -1:255 32 0] 
s 0.185246899 _3_ MAC  --- 3 message 90 [0 ffffffff 3 800] [energy 999.917174 ei 0.079 es 0.000 et 0.000 er 0.003] ------- [3:255 -1:255 32 0] 
N -t 0.185247 -n 2 -e 999.836244
N -t 0.185247 -n 1 -e 999.836330
N -t 0.185247 -n 0 -e 999.836244
N -t 0.185247 -n 4 -e 999.836330
N -t 0.185247 -n 5 -e 999.836330
N -t 0.185247 -n 6 -e 999.836330
N -t 0.185247 -n 7 -e 999.836330
N -t 0.185247 -n 8 -e 999.836330
N -t 0.185247 -n 9 -e 999.836330
N -t 0.185247 -n 10 -e 999.836330
N -t 0.185247 -n 11 -e 999.836330
N -t 0.185247 -n 12 -e 999.836330
N -t 0.185247 -n 13 -e 999.836244
N -t 0.185247 -n 14 -e 999.836330
N -t 0.185247 -n 15 -e 999.836330
N -t 0.185247 -n 16 -e 999.836330
N -t 0.185247 -n 17 -e 999.836330
N -t 0.185247 -n 18 -e 999.836330
N -t 0.185247 -n 19 -e 999.836330
N -t 0.185247 -n 20 -e 999.836330
N -t 0.185247 -n 21 -e 999.836330
N -t 0.185247 -n 22 -e 999.836330
N -t 0.185247 -n 23 -e 999.836330
N -t 0.185247 -n 24 -e 999.836330
N -t 0.185247 -n 25 -e 999.836330
N -t 0.185247 -n 26 -e 999.836330
N -t 0.185247 -n 27 -e 999.836330
N -t 0.185247 -n 28 -e 999.836330
N -t 0.185247 -n 29 -e 999.836330
N -t 0.185247 -n 30 -e 999.836330
N -t 0.185247 -n 31 -e 999.836330
N -t 0.185247 -n 32 -e 999.836330
N -t 0.185247 -n 33 -e 999.836330
N -t 0.185247 -n 34 -e 999.836330
N -t 0.185247 -n 35 -e 999.836330
N -t 0.185247 -n 36 -e 999.836330
N -t 0.185247 -n 37 -e 999.836330
N -t 0.185247 -n 38 -e 999.836330
N -t 0.185247 -n 39 -e 999.836330
r 0.185966899 _2_ MAC  --- 3 message 32 [0 ffffffff 3 800] [energy 999.836244 ei 0.159 es 0.000 et 0.001 er 0.003] ------- [3:255 -1:255 32 0] 
r 0.185966899 _1_ MAC  --- 3 message 32 [0 ffffffff 3 800] [energy 999.836330 ei 0.159 es 0.000 et 0.000 er 0.004] ------- [3:255 -1:255 32 0] 
r 0.185966899 _0_ MAC  --- 3 message 32 [0 ffffffff 3 800] [energy 999.836244 ei 0.159 es 0.000 et 0.001 er 0.003] ------- [3:255 -1:255 32 0] 
r 0.185966899 _4_ MAC  --- 3 message 32 [0 ffffffff 3 800] [energy 999.836330 ei 0.159 es 0.000 et 0.000 er 0.004] ------- [3:255 -1:255 32 0] 
r 0.185966899 _5_ MAC  --- 3 message 32 [0 ffffffff 3 800] [energy 999.836330 ei 0.159 es 0.000 et 0.000 er 0.004] ------- [3:255 -1:255 32 0] 
r 0.185966899 _6_ MAC  --- 3 message 32 [0 ffffffff 3 800] [energy 999.836330 ei 0.159 es 0.000 et 0.000 er 0.004] ------- [3:255 -1:255 32 0] 
r 0.185966899 _7_ MAC  --- 3 message 32 [0 ffffffff 3 800] [energy 999.836330 ei 0.159 es 0.000 et 0.000 er 0.004] ------- [3:255 -1:255 32 0] 
r 0.185966906 _8_ MAC  --- 3 message 32 [0 ffffffff 3 800] [energy 999.836330 ei 0.159 es 0.000 et 0.000 er 0.004] ------- [3:255 -1:255 32 0] 
r 0.185966906 _9_ MAC  --- 3 message 32 [0 ffffffff 3 800] [energy 999.836330 ei 0.159 es 0.000 et 0.000 er 0.004] ------- [3:255 -1:255 32 0] 
r 0.185966906 _10_ MAC  --- 3 message 32 [0 ffffffff 3 800] [energy 999.836330 ei 0.159 es 0.000 et 0.000 er 0.004] ------- [3:255 -1:255 32 0] 
r 0.185966906 _11_ MAC  --- 3 message 32 [0 ffffffff 3 800] [energy 999.836330 ei 0.159 es 0.000 et 0.000 er 0.004] ------- [3:255 -1:255 32 0] 
r 0.185966906 _12_ MAC  --- 3 message 32 [0 ffffffff 3 800] [energy 999.836330 ei 0.159 es 0.000 et 0.000 er 0.004] ------- [3:255 -1:255 32 0] 
r 0.185966906 _13_ MAC  --- 3 message 32 [0 ffffffff 3 800] [energy 999.836244 ei 0.159 es 0.000 et 0.001 er 0.003] ------- [3:255 -1:255 32 0] 
r 0.185966906 _14_ MAC  --- 3 message 32 [0 ffffffff 3 800] [energy 999.836330 ei 0.159 es 0.000 et 0.000 er 0.004] ------- [3:255 -1:255 32 0] 
r 0.185966906 _15_ MAC  --- 3 message 32 [0 ffffffff 3 800] [energy 999.836330 ei 0.159 es 0.000 et 0.000 er 0.004] ------- [3:255 -1:255 32 0] 
r 0.185966913 _16_ MAC  --- 3 message 32 [0 ffffffff 3 800] [energy 999.836330 ei 0.159 es 0.000 et 0.000 er 0.004] ------- [3:255 -1:255 32 0] 
r 0.185966913 _17_ MAC  --- 3 message 32 [0 ffffffff 3 800] [energy 999.836330 ei 0.159 es 0.000 et 0.000 er 0.004] ------- [3:255 -1:255 32 0] 
r 0.185966913 _18_ MAC  --- 3 message 32 [0 ffffffff 3 800] [energy 999.836330 ei 0.159 es 0.000 et 0.000 er 0.004] ------- [3:255 -1:255 32 0] 
r 0.185966913 _19_ MAC  --- 3 message 32 [0 ffffffff 3 800] [energy 999.836330 ei 0.159 es 0.000 et 0.000 er 0.004] ------- [3:255 -1:255 32 0] 
r 0.185966913 _20_ MAC  --- 3 message 32 [0 ffffffff 3 800] [energy 999.836330 ei 0.159 es 0.000 et 0.000 er 0.004] ------- [3:255 -1:255 32 0] 
r 0.185966913 _21_ MAC  --- 3 message 32 [0 ffffffff 3 800] [energy 999.836330 ei 0.159 es 0.000 et 0.000 er 0.004] ------- [3:255 -1:255 32 0] 
r 0.185966913 _22_ MAC  --- 3 message 32 [0 ffffffff 3 800] [energy 999.836330 ei 0.159 es 0.000 et 0.000 er 0.004] ------- [3:255 -1:255 32 0] 
r 0.185966913 _23_ MAC  --- 3 message 32 [0 ffffffff 3 800] [energy 999.836330 ei 0.159 es 0.000 et 0.000 er 0.004] ------- [3:255 -1:255 32 0] 
r 0.185966919 _24_ MAC  --- 3 message 32 [0 ffffffff 3 800] [energy 999.836330 ei 0.159 es 0.000 et 0.000 er 0.004] ------- [3:255 -1:255 32 0] 
r 0.185966919 _25_ MAC  --- 3 message 32 [0 ffffffff 3 800] [energy 999.836330 ei 0.159 es 0.000 et 0.000 er 0.004] ------- [3:255 -1:255 32 0] 
r 0.185966919 _26_ MAC  --- 3 message 32 [0 ffffffff 3 800] [energy 999.836330 ei 0.159 es 0.000 et 0.000 er 0.004] ------- [3:255 -1:255 32 0] 
r 0.185966919 _27_ MAC  --- 3 message 32 [0 ffffffff 3 800] [energy 999.836330 ei 0.159 es 0.000 et 0.000 er 0.004] ------- [3:255 -1:255 32 0] 
r 0.185966919 _28_ MAC  --- 3 message 32 [0 ffffffff 3 800] [energy 999.836330 ei 0.159 es 0.000 et 0.000 er 0.004] ------- [3:255 -1:255 32 0] 
r 0.185966919 _29_ MAC  --- 3 message 32 [0 ffffffff 3 800] [energy 999.836330 ei 0.159 es 0.000 et 0.000 er 0.004] ------- [3:255 -1:255 32 0] 
r 0.185966919 _30_ MAC  --- 3 message 32 [0 ffffffff 3 800] [energy 999.836330 ei 0.159 es 0.000 et 0.000 er 0.004] ------- [3:255 -1:255 32 0] 
r 0.185966919 _31_ MAC  --- 3 message 32 [0 ffffffff 3 800] [energy 999.836330 ei 0.159 es 0.000 et 0.000 er 0.004] ------- [3:255 -1:255 32 0] 
r 0.185966926 _32_ MAC  --- 3 message 32 [0 ffffffff 3 800] [energy 999.836330 ei 0.159 es 0.000 et 0.000 er 0.004] ------- [3:255 -1:255 32 0] 
r 0.185966926 _33_ MAC  --- 3 message 32 [0 ffffffff 3 800] [energy 999.836330 ei 0.159 es 0.000 et 0.000 er 0.004] ------- [3:255 -1:255 32 0] 
r 0.185966926 _34_ MAC  --- 3 message 32 [0 ffffffff 3 800] [energy 999.836330 ei 0.159 es 0.000 et 0.000 er 0.004] ------- [3:255 -1:255 32 0] 
r 0.185966926 _35_ MAC  --- 3 message 32 [0 ffffffff 3 800] [energy 999.836330 ei 0.159 es 0.000 et 0.000 er 0.004] ------- [3:255 -1:255 32 0] 
r 0.185966926 _36_ MAC  --- 3 message 32 [0 ffffffff 3 800] [energy 999.836330 ei 0.159 es 0.000 et 0.000 er 0.004] ------- [3:255 -1:255 32 0] 
r 0.185966926 _37_ MAC  --- 3 message 32 [0 ffffffff 3 800] [energy 999.836330 ei 0.159 es 0.000 et 0.000 er 0.004] ------- [3:255 -1:255 32 0] 
r 0.185966926 _38_ MAC  --- 3 message 32 [0 ffffffff 3 800] [energy 999.836330 ei 0.159 es 0.000 et 0.000 er 0.004] ------- [3:255 -1:255 32 0] 
r 0.185966926 _39_ MAC  --- 3 message 32 [0 ffffffff 3 800] [energy 999.836330 ei 0.159 es 0.000 et 0.000 er 0.004] ------- [3:255 -1:255 32 0] 
s 0.188628284 _19_ MAC  --- 4 message 90 [0 ffffffff 13 800] [energy 999.836330 ei 0.159 es 0.000 et 0.000 er 0.004] ------- [19:255 -1:255 32 0] 
N -t 0.188628 -n 18 -e 999.832892
N -t 0.188628 -n 17 -e 999.832892
N -t 0.188628 -n 16 -e 999.832892
N -t 0.188628 -n 20 -e 999.832892
N -t 0.188628 -n 21 -e 999.832892
N -t 0.188628 -n 22 -e 999.832892
N -t 0.188628 -n 23 -e 999.832892
N -t 0.188628 -n 15 -e 999.832892
N -t 0.188628 -n 14 -e 999.832892
N -t 0.188628 -n 13 -e 999.832807
N -t 0.188628 -n 12 -e 999.832892
N -t 0.188628 -n 11 -e 999.832892
N -t 0.188628 -n 10 -e 999.832892
N -t 0.188628 -n 9 -e 999.832892
N -t 0.188628 -n 8 -e 999.832892
N -t 0.188628 -n 24 -e 999.832892
N -t 0.188628 -n 25 -e 999.832892
N -t 0.188628 -n 26 -e 999.832892
N -t 0.188628 -n 27 -e 999.832892
N -t 0.188628 -n 28 -e 999.832892
N -t 0.188628 -n 29 -e 999.832892
N -t 0.188628 -n 30 -e 999.832892
N -t 0.188628 -n 31 -e 999.832892
N -t 0.188628 -n 7 -e 999.832892
N -t 0.188628 -n 6 -e 999.832892
N -t 0.188628 -n 5 -e 999.832892
N -t 0.188628 -n 4 -e 999.832892
N -t 0.188628 -n 3 -e 999.832807
N -t 0.188628 -n 2 -e 999.832807
N -t 0.188628 -n 1 -e 999.832892
N -t 0.188628 -n 0 -e 999.832807
N -t 0.188628 -n 32 -e 999.832892
N -t 0.188628 -n 33 -e 999.832892
N -t 0.188628 -n 34 -e 999.832892
N -t 0.188628 -n 35 -e 999.832892
N -t 0.188628 -n 36 -e 999.832892
N -t 0.188628 -n 37 -e 999.832892
N -t 0.188628 -n 38 -e 999.832892
N -t 0.188628 -n 39 -e 999.832892