n -t * -s 0  -x 0 -y 0 -Z 0 -z 10  -v circle -c green
n -t * -s 1  -x 0 -y 0 -Z 0 -z 10  -v circle -c green
n -t * -s 2  -x 0 -y 0 -Z 0 -z 10  -v circle -c green
n -t * -s 3  -x 0 -y 0 -Z 0 -z 10  -v circle -c green
n -t * -s 4  -x 0 -y 0 -Z 0 -z 10  -v circle -c green
n -t * -s 5  -x 0 -y 0 -Z 0 -z 10  -v circle -c green
n -t * -s 6  -x 0 -y 0 -Z 0 -z 10  -v circle -c green
n -t * -s 7  -x 0 -y 0 -Z 0 -z 10  -v circle -c green
n -t * -s 8  -x 0 -y 2 -Z 0 -z 10  -v circle -c green
n -t * -s 9  -x 0 -y 2 -Z 0 -z 10  -v circle -c green
n -t * -s 10  -x 0 -y 2 -Z 0 -z 10  -v circle -c green
n -t * -s 11  -x 0 -y 2 -Z 0 -z 10  -v circle -c green
n -t * -s 12  -x 0 -y 2 -Z 0 -z 10  -v circle -c green
n -t * -s 13  -x 0 -y 2 -Z 0 -z 10  -v circle -c green
n -t * -s 14  -x 0 -y 2 -Z 0 -z 10  -v circle -c green
n -t * -s 15  -x 0 -y 2 -Z 0 -z 10  -v circle -c green
n -t * -s 16  -x 0 -y 4 -Z 0 -z 10  -v circle -c green
n -t * -s 17  -x 0 -y 4 -Z 0 -z 10  -v circle -c green
n -t * -s 18  -x 0 -y 4 -Z 0 -z 10  -v circle -c green
n -t * -s 19  -x 0 -y 4 -Z 0 -z 10  -v circle -c green
n -t * -s 20  -x 0 -y 4 -Z 0 -z 10  -v circle -c green
n -t * -s 21  -x 0 -y 4 -Z 0 -z 10  -v circle -c green
n -t * -s 22  -x 0 -y 4 -Z 0 -z 10  -v circle -c green
n -t * -s 23  -x 0 -y 4 -Z 0 -z 10  -v circle -c green
n -t * -s 24  -x 0 -y 6 -Z 0 -z 10  -v circle -c green
n -t * -s 25  -x 0 -y 6 -Z 0 -z 10  -v circle -c green
n -t * -s 26  -x 0 -y 6 -Z 0 -z 10  -v circle -c green
n -t * -s 27  -x 0 -y 6 -Z 0 -z 10  -v circle -c green
n -t * -s 28  -x 0 -y 6 -Z 0 -z 10  -v circle -c green
n -t * -s 29  -x 0 -y 6 -Z 0 -z 10  -v circle -c green
n -t * -s 30  -x 0 -y 6 -Z 0 -z 10  -v circle -c green
n -t * -s 31  -x 0 -y 6 -Z 0 -z 10  -v circle -c green
n -t * -s 32  -x 0 -y 8 -Z 0 -z 10  -v circle -c green
n -t * -s 33  -x 0 -y 8 -Z 0 -z 10  -v circle -c green
n -t * -s 34  -x 0 -y 8 -Z 0 -z 10  -v circle -c green
n -t * -s 35  -x 0 -y 8 -Z 0 -z 10  -v circle -c green
n -t * -s 36  -x 0 -y 8 -Z 0 -z 10  -v circle -c green
n -t * -s 37  -x 0 -y 8 -Z 0 -z 10  -v circle -c green
n -t * -s 38  -x 0 -y 8 -Z 0 -z 10  -v circle -c green
n -t * -s 39  -x 0 -y 8 -Z 0 -z 10  -v circle -c green
V -t * -v 1.0a5 -a 0
W -t * -x 5 -y 5
A -t * -n 1 -p 0 -o 0x7fffffff -c 30 -a 1
A -t * -h 1 -m 1073741823 -s 0
+ -t 0.010796804 -s 0 -d -1 -p message -e 90 -c 2 -a 0 -i 0 -k MAC 
- -t 0.010796804 -s 0 -d -1 -p message -e 90 -c 2 -a 0 -i 0 -k MAC
h -t 0.010796804 -s 0 -d -1 -p message -e 90 -c 2 -a 0 -i 0 -k MAC
r -t 0.011516804 -s 1 -d -1 -p message -e 32 -c 2 -a 0 -i 0 -k MAC
r -t 0.011516804 -s 2 -d -1 -p message -e 32 -c 2 -a 0 -i 0 -k MAC
r -t 0.011516804 -s 3 -d -1 -p message -e 32 -c 2 -a 0 -i 0 -k MAC
r -t 0.011516804 -s 4 -d -1 -p message -e 32 -c 2 -a 0 -i 0 -k MAC
r -t 0.011516804 -s 5 -d -1 -p message -e 32 -c 2 -a 0 -i 0 -k MAC
r -t 0.011516804 -s 6 -d -1 -p message -e 32 -c 2 -a 0 -i 0 -k MAC
r -t 0.011516804 -s 7 -d -1 -p message -e 32 -c 2 -a 0 -i 0 -k MAC
r -t 0.011516811 -s 8 -d -1 -p message -e 32 -c 2 -a 0 -i 0 -k MAC
r -t 0.011516811 -s 9 -d -1 -p message -e 32 -c 2 -a 0 -i 0 -k MAC
r -t 0.011516811 -s 10 -d -1 -p message -e 32 -c 2 -a 0 -i 0 -k MAC
r -t 0.011516811 -s 11 -d -1 -p message -e 32 -c 2 -a 0 -i 0 -k MAC
r -t 0.011516811 -s 12 -d -1 -p message -e 32 -c 2 -a 0 -i 0 -k MAC
r -t 0.011516811 -s 13 -d -1 -p message -e 32 -c 2 -a 0 -i 0 -k MAC
r -t 0.011516811 -s 14 -d -1 -p message -e 32 -c 2 -a 0 -i 0 -k MAC
r -t 0.011516811 -s 15 -d -1 -p message -e 32 -c 2 -a 0 -i 0 -k MAC
r -t 0.011516817 -s 16 -d -1 -p message -e 32 -c 2 -a 0 -i 0 -k MAC
r -t 0.011516817 -s 17 -d -1 -p message -e 32 -c 2 -a 0 -i 0 -k MAC
r -t 0.011516817 -s 18 -d -1 -p message -e 32 -c 2 -a 0 -i 0 -k MAC
r -t 0.011516817 -s 19 -d -1 -p message -e 32 -c 2 -a 0 -i 0 -k MAC
r -t 0.011516817 -s 20 -d -1 -p message -e 32 -c 2 -a 0 -i 0 -k MAC
r -t 0.011516817 -s 21 -d -1 -p message -e 32 -c 2 -a 0 -i 0 -k MAC
r -t 0.011516817 -s 22 -d -1 -p message -e 32 -c 2 -a 0 -i 0 -k MAC
r -t 0.011516817 -s 23 -d -1 -p message -e 32 -c 2 -a 0 -i 0 -k MAC
r -t 0.011516824 -s 24 -d -1 -p message -e 32 -c 2 -a 0 -i 0 -k MAC
r -t 0.011516824 -s 25 -d -1 -p message -e 32 -c 2 -a 0 -i 0 -k MAC
r -t 0.011516824 -s 26 -d -1 -p message -e 32 -c 2 -a 0 -i 0 -k MAC
r -t 0.011516824 -s 27 -d -1 -p message -e 32 -c 2 -a 0 -i 0 -k MAC
r -t 0.011516824 -s 28 -d -1 -p message -e 32 -c 2 -a 0 -i 0 -k MAC
r -t 0.011516824 -s 29 -d -1 -p message -e 32 -c 2 -a 0 -i 0 -k MAC
r -t 0.011516824 -s 30 -d -1 -p message -e 32 -c 2 -a 0 -i 0 -k MAC
r -t 0.011516824 -s 31 -d -1 -p message -e 32 -c 2 -a 0 -i 0 -k MAC
r -t 0.011516831 -s 32 -d -1 -p message -e 32 -c 2 -a 0 -i 0 -k MAC
r -t 0.011516831 -s 33 -d -1 -p message -e 32 -c 2 -a 0 -i 0 -k MAC
r -t 0.011516831 -s 34 -d -1 -p message -e 32 -c 2 -a 0 -i 0 -k MAC
r -t 0.011516831 -s 35 -d -1 -p message -e 32 -c 2 -a 0 -i 0 -k MAC
r -t 0.011516831 -s 36 -d -1 -p message -e 32 -c 2 -a 0 -i 0 -k MAC
r -t 0.011516831 -s 37 -d -1 -p message -e 32 -c 2 -a 0 -i 0 -k MAC
r -t 0.011516831 -s 38 -d -1 -p message -e 32 -c 2 -a 0 -i 0 -k MAC
r -t 0.011516831 -s 39 -d -1 -p message -e 32 -c 2 -a 0 -i 0 -k MAC
+ -t 0.029092405 -s 2 -d -1 -p message -e 90 -c 2 -a 0 -i 1 -k MAC 
- -t 0.029092405 -s 2 -d -1 -p message -e 90 -c 2 -a 0 -i 1 -k MAC
h -t 0.029092405 -s 2 -d -1 -p message -e 90 -c 2 -a 0 -i 1 -k MAC
r -t 0.029812405 -s 1 -d -1 -p message -e 32 -c 2 -a 0 -i 1 -k MAC
r -t 0.029812405 -s 0 -d -1 -p message -e 32 -c 2 -a 0 -i 1 -k MAC
r -t 0.029812405 -s 3 -d -1 -p message -e 32 -c 2 -a 0 -i 1 -k MAC
r -t 0.029812405 -s 4 -d -1 -p message -e 32 -c 2 -a 0 -i 1 -k MAC
r -t 0.029812405 -s 5 -d -1 -p message -e 32 -c 2 -a 0 -i 1 -k MAC
r -t 0.029812405 -s 6 -d -1 -p message -e 32 -c 2 -a 0 -i 1 -k MAC
r -t 0.029812405 -s 7 -d -1 -p message -e 32 -c 2 -a 0 -i 1 -k MAC
r -t 0.029812411 -s 8 -d -1 -p message -e 32 -c 2 -a 0 -i 1 -k MAC
r -t 0.029812411 -s 9 -d -1 -p message -e 32 -c 2 -a 0 -i 1 -k MAC
r -t 0.029812411 -s 10 -d -1 -p message -e 32 -c 2 -a 0 -i 1 -k MAC
r -t 0.029812411 -s 11 -d -1 -p message -e 32 -c 2 -a 0 -i 1 -k MAC
r -t 0.029812411 -s 12 -d -1 -p message -e 32 -c 2 -a 0 -i 1 -k MAC
r -t 0.029812411 -s 13 -d -1 -p message -e 32 -c 2 -a 0 -i 1 -k MAC
r -t 0.029812411 -s 14 -d -1 -p message -e 32 -c 2 -a 0 -i 1 -k MAC
r -t 0.029812411 -s 15 -d -1 -p message -e 32 -c 2 -a 0 -i 1 -k MAC
r -t 0.029812418 -s 16 -d -1 -p message -e 32 -c 2 -a 0 -i 1 -k MAC
r -t 0.029812418 -s 17 -d -1 -p message -e 32 -c 2 -a 0 -i 1 -k MAC
r -t 0.029812418 -s 18 -d -1 -p message -e 32 -c 2 -a 0 -i 1 -k MAC
r -t 0.029812418 -s 19 -d -1 -p message -e 32 -c 2 -a 0 -i 1 -k MAC
r -t 0.029812418 -s 20 -d -1 -p message -e 32 -c 2 -a 0 -i 1 -k MAC
r -t 0.029812418 -s 21 -d -1 -p message -e 32 -c 2 -a 0 -i 1 -k MAC
r -t 0.029812418 -s 22 -d -1 -p message -e 32 -c 2 -a 0 -i 1 -k MAC
r -t 0.029812418 -s 23 -d -1 -p message -e 32 -c 2 -a 0 -i 1 -k MAC
r -t 0.029812425 -s 24 -d -1 -p message -e 32 -c 2 -a 0 -i 1 -k MAC
r -t 0.029812425 -s 25 -d -1 -p message -e 32 -c 2 -a 0 -i 1 -k MAC
r -t 0.029812425 -s 26 -d -1 -p message -e 32 -c 2 -a 0 -i 1 -k MAC
r -t 0.029812425 -s 27 -d -1 -p message -e 32 -c 2 -a 0 -i 1 -k MAC
r -t 0.029812425 -s 28 -d -1 -p message -e 32 -c 2 -a 0 -i 1 -k MAC
r -t 0.029812425 -s 29 -d -1 -p message -e 32 -c 2 -a 0 -i 1 -k MAC
r -t 0.029812425 -s 30 -d -1 -p message -e 32 -c 2 -a 0 -i 1 -k MAC
r -t 0.029812425 -s 31 -d -1 -p message -e 32 -c 2 -a 0 -i 1 -k MAC
r -t 0.029812431 -s 32 -d -1 -p message -e 32 -c 2 -a 0 -i 1 -k MAC
r -t 0.029812431 -s 33 -d -1 -p message -e 32 -c 2 -a 0 -i 1 -k MAC
r -t 0.029812431 -s 34 -d -1 -p message -e 32 -c 2 -a 0 -i 1 -k MAC
r -t 0.029812431 -s 35 -d -1 -p message -e 32 -c 2 -a 0 -i 1 -k MAC
r -t 0.029812431 -s 36 -d -1 -p message -e 32 -c 2 -a 0 -i 1 -k MAC
r -t 0.029812431 -s 37 -d -1 -p message -e 32 -c 2 -a 0 -i 1 -k MAC
r -t 0.029812431 -s 38 -d -1 -p message -e 32 -c 2 -a 0 -i 1 -k MAC
r -t 0.029812431 -s 39 -d -1 -p message -e 32 -c 2 -a 0 -i 1 -k MAC
+ -t 0.092830354 -s 13 -d -1 -p message -e 90 -c 2 -a 0 -i 2 -k MAC 
- -t 0.092830354 -s 13 -d -1 -p message -e 90 -c 2 -a 0 -i 2 -k MAC
h -t 0.092830354 -s 13 -d -1 -p message -e 90 -c 2 -a 0 -i 2 -k MAC
r -t 0.093550354 -s 12 -d -1 -p message -e 32 -c 2 -a 0 -i 2 -k MAC
r -t 0.093550354 -s 11 -d -1 -p message -e 32 -c 2 -a 0 -i 2 -k MAC
r -t 0.093550354 -s 10 -d -1 -p message -e 32 -c 2 -a 0 -i 2 -k MAC
r -t 0.093550354 -s 9 -d -1 -p message -e 32 -c 2 -a 0 -i 2 -k MAC
r -t 0.093550354 -s 8 -d -1 -p message -e 32 -c 2 -a 0 -i 2 -k MAC
r -t 0.093550354 -s 14 -d -1 -p message -e 32 -c 2 -a 0 -i 2 -k MAC
r -t 0.093550354 -s 15 -d -1 -p message -e 32 -c 2 -a 0 -i 2 -k MAC
r -t 0.093550361 -s 7 -d -1 -p message -e 32 -c 2 -a 0 -i 2 -k MAC
r -t 0.093550361 -s 6 -d -1 -p message -e 32 -c 2 -a 0 -i 2 -k MAC
r -t 0.093550361 -s 5 -d -1 -p message -e 32 -c 2 -a 0 -i 2 -k MAC
r -t 0.093550361 -s 4 -d -1 -p message -e 32 -c 2 -a 0 -i 2 -k MAC
r -t 0.093550361 -s 3 -d -1 -p message -e 32 -c 2 -a 0 -i 2 -k MAC
r -t 0.093550361 -s 2 -d -1 -p message -e 32 -c 2 -a 0 -i 2 -k MAC
r -t 0.093550361 -s 1 -d -1 -p message -e 32 -c 2 -a 0 -i 2 -k MAC
r -t 0.093550361 -s 0 -d -1 -p message -e 32 -c 2 -a 0 -i 2 -k MAC
r -t 0.093550361 -s 16 -d -1 -p message -e 32 -c 2 -a 0 -i 2 -k MAC
r -t 0.093550361 -s 17 -d -1 -p message -e 32 -c 2 -a 0 -i 2 -k MAC
r -t 0.093550361 -s 18 -d -1 -p message -e 32 -c 2 -a 0 -i 2 -k MAC
r -t 0.093550361 -s 19 -d -1 -p message -e 32 -c 2 -a 0 -i 2 -k MAC
r -t 0.093550361 -s 20 -d -1 -p message -e 32 -c 2 -a 0 -i 2 -k MAC
r -t 0.093550361 -s 21 -d -1 -p message -e 32 -c 2 -a 0 -i 2 -k MAC
r -t 0.093550361 -s 22 -d -1 -p message -e 32 -c 2 -a 0 -i 2 -k MAC
r -t 0.093550361 -s 23 -d -1 -p message -e 32 -c 2 -a 0 -i 2 -k MAC
r -t 0.093550368 -s 24 -d -1 -p message -e 32 -c 2 -a 0 -i 2 -k MAC
r -t 0.093550368 -s 25 -d -1 -p message -e 32 -c 2 -a 0 -i 2 -k MAC
r -t 0.093550368 -s 26 -d -1 -p message -e 32 -c 2 -a 0 -i 2 -k MAC
r -t 0.093550368 -s 27 -d -1 -p message -e 32 -c 2 -a 0 -i 2 -k MAC
r -t 0.093550368 -s 28 -d -1 -p message -e 32 -c 2 -a 0 -i 2 -k MAC
r -t 0.093550368 -s 29 -d -1 -p message -e 32 -c 2 -a 0 -i 2 -k MAC
r -t 0.093550368 -s 30 -d -1 -p message -e 32 -c 2 -a 0 -i 2 -k MAC
r -t 0.093550368 -s 31 -d -1 -p message -e 32 -c 2 -a 0 -i 2 -k MAC
r -t 0.093550374 -s 32 -d -1 -p message -e 32 -c 2 -a 0 -i 2 -k MAC
r -t 0.093550374 -s 33 -d -1 -p message -e 32 -c 2 -a 0 -i 2 -k MAC
r -t 0.093550374 -s 34 -d -1 -p message -e 32 -c 2 -a 0 -i 2 -k MAC
r -t 0.093550374 -s 35 -d -1 -p message -e 32 -c 2 -a 0 -i 2 -k MAC
r -t 0.093550374 -s 36 -d -1 -p message -e 32 -c 2 -a 0 -i 2 -k MAC
r -t 0.093550374 -s 37 -d -1 -p message -e 32 -c 2 -a 0 -i 2 -k MAC
r -t 0.093550374 -s 38 -d -1 -p message -e 32 -c 2 -a 0 -i 2 -k MAC
r -t 0.093550374 -s 39 -d -1 -p message -e 32 -c 2 -a 0 -i 2 -k MAC
+ -t 0.185246899 -s 3 -d -1 -p message -e 90 -c 2 -a 0 -i 3 -k MAC 
- -t 0.185246899 -s 3 -d -1 -p message -e 90 -c 2 -a 0 -i 3 -k MAC
h -t 0.185246899 -s 3 -d -1 -p message -e 90 -c 2 -a 0 -i 3 -k MAC
r -t 0.185966899 -s 2 -d -1 -p message -e 32 -c 2 -a 0 -i 3 -k MAC
r -t 0.185966899 -s 1 -d -1 -p message -e 32 -c 2 -a 0 -i 3 -k MAC
r -t 0.185966899 -s 0 -d -1 -p message -e 32 -c 2 -a 0 -i 3 -k MAC
r -t 0.185966899 -s 4 -d -1 -p message -e 32 -c 2 -a 0 -i 3 -k MAC
r -t 0.185966899 -s 5 -d -1 -p message -e 32 -c 2 -a 0 -i 3 -k MAC
r -t 0.185966899 -s 6 -d -1 -p message -e 32 -c 2 -a 0 -i 3 -k MAC
r -t 0.185966899 -s 7 -d -1 -p message -e 32 -c 2 -a 0 -i 3 -k MAC
r -t 0.185966906 -s 8 -d -1 -p message -e 32 -c 2 -a 0 -i 3 -k MAC
r -t 0.185966906 -s 9 -d -1 -p message -e 32 -c 2 -a 0 -i 3 -k MAC
r -t 0.185966906 -s 10 -d -1 -p message -e 32 -c 2 -a 0 -i 3 -k MAC
r -t 0.185966906 -s 11 -d -1 -p message -e 32 -c 2 -a 0 -i 3 -k MAC
r -t 0.185966906 -s 12 -d -1 -p message -e 32 -c 2 -a 0 -i 3 -k MAC
r -t 0.185966906 -s 13 -d -1 -p message -e 32 -c 2 -a 0 -i 3 -k MAC
r -t 0.185966906 -s 14 -d -1 -p message -e 32 -c 2 -a 0 -i 3 -k MAC
r -t 0.185966906 -s 15 -d -1 -p message -e 32 -c 2 -a 0 -i 3 -k MAC
r -t 0.185966913 -s 16 -d -1 -p message -e 32 -c 2 -a 0 -i 3 -k MAC
r -t 0.185966913 -s 17 -d -1 -p message -e 32 -c 2 -a 0 -i 3 -k MAC
r -t 0.185966913 -s 18 -d -1 -p message -e 32 -c 2 -a 0 -i 3 -k MAC
r -t 0.185966913 -s 19 -d -1 -p message -e 32 -c 2 -a 0 -i 3 -k MAC
r -t 0.185966913 -s 20 -d -1 -p message -e 32 -c 2 -a 0 -i 3 -k MAC
r -t 0.185966913 -s 21 -d -1 -p message -e 32 -c 2 -a 0 -i 3 -k MAC
r -t 0.185966913 -s 22 -d -1 -p message -e 32 -c 2 -a 0 -i 3 -k MAC
r -t 0.185966913 -s 23 -d -1 -p message -e 32 -c 2 -a 0 -i 3 -k MAC
r -t 0.185966919 -s 24 -d -1 -p message -e 32 -c 2 -a 0 -i 3 -k MAC
r -t 0.185966919 -s 25 -d -1 -p message -e 32 -c 2 -a 0 -i 3 -k MAC
r -t 0.185966919 -s 26 -d -1 -p message -e 32 -c 2 -a 0 -i 3 -k MAC
r -t 0.185966919 -s 27 -d -1 -p message -e 32 -c 2 -a 0 -i 3 -k MAC
r -t 0.185966919 -s 28 -d -1 -p message -e 32 -c 2 -a 0 -i 3 -k MAC
r -t 0.185966919 -s 29 -d -1 -p message -e 32 -c 2 -a 0 -i 3 -k MAC
r -t 0.185966919 -s 30 -d -1 -p message -e 32 -c 2 -a 0 -i 3 -k MAC
r -t 0.185966919 -s 31 -d -1 -p message -e 32 -c 2 -a 0 -i 3 -k MAC
r -t 0.185966926 -s 32 -d -1 -p message -e 32 -c 2 -a 0 -i 3 -k MAC
r -t 0.185966926 -s 33 -d -1 -p message -e 32 -c 2 -a 0 -i 3 -k MAC
r -t 0.185966926 -s 34 -d -1 -p message -e 32 -c 2 -a 0 -i 3 -k MAC
r -t 0.185966926 -s 35 -d -1 -p message -e 32 -c 2 -a 0 -i 3 -k MAC
r -t 0.185966926 -s 36 -d -1 -p message -e 32 -c 2 -a 0 -i 3 -k MAC
r -t 0.185966926 -s 37 -d -1 -p message -e 32 -c 2 -a 0 -i 3 -k MAC
r -t 0.185966926 -s 38 -d -1 -p message -e 32 -c 2 -a 0 -i 3 -k MAC
r -t 0.185966926 -s 39 -d -1 -p message -e 32 -c 2 -a 0 -i 3 -k MAC
+ -t 0.188628284 -s 19 -d -1 -p message -e 90 -c 2 -a 0 -i 4 -k MAC 
- -t 0.188628284 -s 19 -d -1 -p message -e 90 -c 2 -a 0 -i 4 -k MAC
h -t 0.188628284 -s 19 -d -1 -p message -e 90 -c 2 -a 0 -i 4 -k MAC
r -t 0.189348284 -s 18 -d -1 -p message -e 32 -c 2 -a 0 -i 4 -k MAC
r -t 0.189348284 -s 17 -d -1 -p message -e 32 -c 2 -a 0 -i 4 -k MAC
r -t 0.189348284 -s 16 -d -1 -p message -e 32 -c 2 -a 0 -i 4 -k MAC
r -t 0.189348284 -s 20 -d -1 -p message -e 32 -c 2 -a 0 -i 4 -k MAC
r -t 0.189348284 -s 21 -d -1 -p message -e 32 -c 2 -a 0 -i 4 -k MAC
r -t 0.189348284 -s 22 -d -1 -p message -e 32 -c 2 -a 0 -i 4 -k MAC
r -t 0.189348284 -s 23 -d -1 -p message -e 32 -c 2 -a 0 -i 4 -k MAC
r -t 0.189348290 -s 15 -d -1 -p message -e 32 -c 2 -a 0 -i 4 -k MAC
r -t 0.189348290 -s 14 -d -1 -p message -e 32 -c 2 -a 0 -i 4 -k MAC
r -t 0.189348290 -s 13 -d -1 -p message -e 32 -c 2 -a 0 -i 4 -k MAC
r -t 0.189348290 -s 12 -d -1 -p message -e 32 -c 2 -a 0 -i 4 -k MAC
r -t 0.189348290 -s 11 -d -1 -p message -e 32 -c 2 -a 0 -i 4 -k MAC
r -t 0.189348290 -s 10 -d -1 -p message -e 32 -c 2 -a 0 -i 4 -k MAC
r -t 0.189348290 -s 9 -d -1 -p message -e 32 -c 2 -a 0 -i 4 -k MAC
r -t 0.189348290 -s 8 -d -1 -p message -e 32 -c 2 -a 0 -i 4 -k MAC
r -t 0.189348290 -s 24 -d -1 -p message -e 32 -c 2 -a 0 -i 4 -k MAC
r -t 0.189348290 -s 25 -d -1 -p message -e 32 -c 2 -a 0 -i 4 -k MAC
r -t 0.189348290 -s 26 -d -1 -p message -e 32 -c 2 -a 0 -i 4 -k MAC
r -t 0.189348290 -s 27 -d -1 -p message -e 32 -c 2 -a 0 -i 4 -k MAC
r -t 0.189348290 -s 28 -d -1 -p message -e 32 -c 2 -a 0 -i 4 -k MAC
r -t 0.189348290 -s 29 -d -1 -p message -e 32 -c 2 -a 0 -i 4 -k MAC
r -t 0.189348290 -s 30 -d -1 -p message -e 32 -c 2 -a 0 -i 4 -k MAC
r -t 0.189348290 -s 31 -d -1 -p message -e 32 -c 2 -a 0 -i 4 -k MAC
r -t 0.189348297 -s 7 -d -1 -p message -e 32 -c 2 -a 0 -i 4 -k MAC
r -t 0.189348297 -s 6 -d -1 -p message -e 32 -c 2 -a 0 -i 4 -k MAC
r -t 0.189348297 -s 5 -d -1 -p message -e 32 -c 2 -a 0 -i 4 -k MAC
r -t 0.189348297 -s 4 -d -1 -p message -e 32 -c 2 -a 0 -i 4 -k MAC
r -t 0.189348297 -s 3 -d -1 -p message -e 32 -c 2 -a 0 -i 4 -k MAC
r -t 0.189348297 -s 2 -d -1 -p message -e 32 -c 2 -a 0 -i 4 -k MAC
r -t 0.189348297 -s 1 -d -1 -p message -e 32 -c 2 -a 0 -i 4 -k MAC
r -t 0.189348297 -s 0 -d -1 -p message -e 32 -c 2 -a 0 -i 4 -k MAC
r -t 0.189348297 -s 32 -d -1 -p message -e 32 -c 2 -a 0 -i 4 -k MAC
r -t 0.189348297 -s 33 -d -1 -p message -e 32 -c 2 -a 0 -i 4 -k MAC
r -t 0.189348297 -s 34 -d -1 -p message -e 32 -c 2 -a 0 -i 4 -k MAC
r -t 0.189348297 -s 35 -d -1 -p message -e 32 -c 2 -a 0 -i 4 -k MAC
r -t 0.189348297 -s 36 -d -1 -p message -e 32 -c 2 -a 0 -i 4 -k MAC
r -t 0.189348297 -s 37 -d -1 -p message -e 32 -c 2 -a 0 -i 4 -k MAC
r -t 0.189348297 -s 38 -d -1 -p message -e 32 -c 2 -a 0 -i 4 -k MAC
r -t 0.189348297 -s 39 -d -1 -p message -e 32 -c 2 -a 0 -i 4 -k MAC
+ -t 0.228180106 -s 36 -d -1 -p message -e 90 -c 2 -a 0 -i 5 -k MAC 
- -t 0.228180106 -s 36 -d -1 -p message -e 90 -c 2 -a 0 -i 5 -k MAC
h -t 0.228180106 -s 36 -d -1 -p message -e 90 -c 2 -a 0 -i 5 -k MAC
r -t 0.228900106 -s 35 -d -1 -p message -e 32 -c 2 -a 0 -i 5 -k MAC
r -t 0.228900106 -s 34 -d -1 -p message -e 32 -c 2 -a 0 -i 5 -k MAC
r -t 0.228900106 -s 33 -d -1 -p message -e 32 -c 2 -a 0 -i 5 -k MAC
r -t 0.228900106 -s 32 -d -1 -p message -e 32 -c 2 -a 0 -i 5 -k MAC
r -t 0.228900106 -s 37 -d -1 -p message -e 32 -c 2 -a 0 -i 5 -k MAC
r -t 0.228900106 -s 38 -d -1 -p message -e 32 -c 2 -a 0 -i 5 -k MAC
r -t 0.228900106 -s 39 -d -1 -p message -e 32 -c 2 -a 0 -i 5 -k MAC
r -t 0.228900112 -s 31 -d -1 -p message -e 32 -c 2 -a 0 -i 5 -k MAC
r -t 0.228900112 -s 30 -d -1 -p message -e 32 -c 2 -a 0 -i 5 -k MAC
r -t 0.228900112 -s 29 -d -1 -p message -e 32 -c 2 -a 0 -i 5 -k MAC
r -t 0.228900112 -s 28 -d -1 -p message -e 32 -c 2 -a 0 -i 5 -k MAC
r -t 0.228900112 -s 27 -d -1 -p message -e 32 -c 2 -a 0 -i 5 -k MAC
r -t 0.228900112 -s 26 -d -1 -p message -e 32 -c 2 -a 0 -i 5 -k MAC
r -t 0.228900112 -s 25 -d -1 -p message -e 32 -c 2 -a 0 -i 5 -k MAC
r -t 0.228900112 -s 24 -d -1 -p message -e 32 -c 2 -a 0 -i 5 -k MAC
r -t 0.228900119 -s 23 -d -1 -p message -e 32 -c 2 -a 0 -i 5 -k MAC
r -t 0.228900119 -s 22 -d -1 -p message -e 32 -c 2 -a 0 -i 5 -k MAC
r -t 0.228900119 -s 21 -d -1 -p message -e 32 -c 2 -a 0 -i 5 -k MAC
r -t 0.228900119 -s 20 -d -1 -p message -e 32 -c 2 -a 0 -i 5 -k MAC
r -t 0.228900119 -s 19 -d -1 -p message -e 32 -c 2 -a 0 -i 5 -k MAC
r -t 0.228900119 -s 18 -d -1 -p message -e 32 -c 2 -a 0 -i 5 -k MAC
r -t 0.228900119 -s 17 -d -1 -p message -e 32 -c 2 -a 0 -i 5 -k MAC
r -t 0.228900119 -s 16 -d -1 -p message -e 32 -c 2 -a 0 -i 5 -k MAC
r -t 0.228900126 -s 15 -d -1 -p message -e 32 -c 2 -a 0 -i 5 -k MAC
r -t 0.228900126 -s 14 -d -1 -p message -e 32 -c 2 -a 0 -i 5 -k MAC
r -t 0.228900126 -s 13 -d -1 -p message -e 32 -c 2 -a 0 -i 5 -k MAC
r -t 0.228900126 -s 12 -d -1 -p message -e 32 -c 2 -a 0 -i 5 -k MAC
r -t 0.228900126 -s 11 -d -1 -p message -e 32 -c 2 -a 0 -i 5 -k MAC
r -t 0.228900126 -s 10 -d -1 -p message -e 32 -c 2 -a 0 -i 5 -k MAC
r -t 0.228900126 -s 9 -d -1 -p message -e 32 -c 2 -a 0 -i 5 -k MAC
r -t 0.228900126 -s 8 -d -1 -p message -e 32 -c 2 -a 0 -i 5 -k MAC
r -t 0.228900132 -s 7 -d -1 -p message -e 32 -c 2 -a 0 -i 5 -k MAC
r -t 0.228900132 -s 6 -d -1 -p message -e 32 -c 2 -a 0 -i 5 -k MAC
r -t 0.228900132 -s 5 -d -1 -p message -e 32 -c 2 -a 0 -i 5 -k MAC
r -t 0.228900132 -s 4 -d -1 -p message -e 32 -c 2 -a 0 -i 5 -k MAC
r -t 0.228900132 -s 3 -d -1 -p message -e 32 -c 2 -a 0 -i 5 -k MAC
r -t 0.228900132 -s 2 -d -1 -p message -e 32 -c 2 -a 0 -i 5 -k MAC
r -t 0.228900132 -s 1 -d -1 -p message -e 32 -c 2 -a 0 -i 5 -k MAC
r -t 0.228900132 -s 0 -d -1 -p message -e 32 -c 2 -a 0 -i 5 -k MAC
+ -t 0.230058837 -s 15 -d -1 -p message -e 90 -c 2 -a 0 -i 6 -k MAC 
- -t 0.230058837 -s 15 -d -1 -p message -e 90 -c 2 -a 0 -i 6 -k MAC
h -t 0.230058837 -s 15 -d -1 -p message -e 90 -c 2 -a 0 -i 6 -k MAC
r -t 0.230778837 -s 14 -d -1 -p message -e 32 -c 2 -a 0 -i 6 -k MAC
r -t 0.230778837 -s 13 -d -1 -p message -e 32 -c 2 -a 0 -i 6 -k MAC
r -t 0.230778837 -s 12 -d -1 -p message -e 32 -c 2 -a 0 -i 6 -k MAC
r -t 0.230778837 -s 11 -d -1 -p message -e 32 -c 2 -a 0 -i 6 -k MAC
r -t 0.230778837 -s 10 -d -1 -p message -e 32 -c 2 -a 0 -i 6 -k MAC
r -t 0.230778837 -s 9 -d -1 -p message -e 32 -c 2 -a 0 -i 6 -k MAC
r -t 0.230778837 -s 8 -d -1 -p message -e 32 -c 2 -a 0 -i 6 -k MAC
r -t 0.230778844 -s 7 -d -1 -p message -e 32 -c 2 -a 0 -i 6 -k MAC
r -t 0.230778844 -s 6 -d -1 -p message -e 32 -c 2 -a 0 -i 6 -k MAC
r -t 0.230778844 -s 5 -d -1 -p message -e 32 -c 2 -a 0 -i 6 -k MAC
r -t 0.230778844 -s 4 -d -1 -p message -e 32 -c 2 -a 0 -i 6 -k MAC
r -t 0.230778844 -s 3 -d -1 -p message -e 32 -c 2 -a 0 -i 6 -k MAC
r -t 0.230778844 -s 2 -d -1 -p message -e 32 -c 2 -a 0 -i 6 -k MAC
r -t 0.230778844 -s 1 -d -1 -p message -e 32 -c 2 -a 0 -i 6 -k MAC
r -t 0.230778844 -s 0 -d -1 -p message -e 32 -c 2 -a 0 -i 6 -k MAC
r -t 0.230778844 -s 16 -d -1 -p message -e 32 -c 2 -a 0 -i 6 -k MAC
r -t 0.230778844 -s 17 -d -1 -p message -e 32 -c 2 -a 0 -i 6 -k MAC
r -t 0.230778844 -s 18 -d -1 -p message -e 32 -c 2 -a 0 -i 6 -k MAC
r -t 0.230778844 -s 19 -d -1 -p message -e 32 -c 2 -a 0 -i 6 -k MAC
r -t 0.230778844 -s 20 -d -1 -p message -e 32 -c 2 -a 0 -i 6 -k MAC
r -t 0.230778844 -s 21 -d -1 -p message -e 32 -c 2 -a 0 -i 6 -k MAC
r -t 0.230778844 -s 22 -d -1 -p message -e 32 -c 2 -a 0 -i 6 -k MAC
r -t 0.230778844 -s 23 -d -1 -p message -e 32 -c 2 -a 0 -i 6 -k MAC
r -t 0.230778851 -s 24 -d -1 -p message -e 32 -c 2 -a 0 -i 6 -k MAC
r -t 0.230778851 -s 25 -d -1 -p message -e 32 -c 2 -a 0 -i 6 -k MAC
r -t 0.230778851 -s 26 -d -1 -p message -e 32 -c 2 -a 0 -i 6 -k MAC
r -t 0.230778851 -s 27 -d -1 -p message -e 32 -c 2 -a 0 -i 6 -k MAC
r -t 0.230778851 -s 28 -d -1 -p message -e 32 -c 2 -a 0 -i 6 -k MAC
r -t 0.230778851 -s 29 -d -1 -p message -e 32 -c 2 -a 0 -i 6 -k MAC
r -t 0.230778851 -s 30 -d -1 -p message -e 32 -c 2 -a 0 -i 6 -k MAC
r -t 0.230778851 -s 31 -d -1 -p message -e 32 -c 2 -a 0 -i 6 -k MAC
r -t 0.230778857 -s 32 -d -1 -p message -e 32 -c 2 -a 0 -i 6 -k MAC
r -t 0.230778857 -s 33 -d -1 -p message -e 32 -c 2 -a 0 -i 6 -k MAC
r -t 0.230778857 -s 34 -d -1 -p message -e 32 -c 2 -a 0 -i 6 -k MAC
r -t 0.230778857 -s 35 -d -1 -p message -e 32 -c 2 -a 0 -i 6 -k MAC
r -t 0.230778857 -s 36 -d -1 -p message -e 32 -c 2 -a 0 -i 6 -k MAC
r -t 0.230778857 -s 37 -d -1 -p message -e 32 -c 2 -a 0 -i 6 -k MAC
r -t 0.230778857 -s 38 -d -1 -p message -e 32 -c 2 -a 0 -i 6 -k MAC
r -t 0.230778857 -s 39 -d -1 -p message -e 32 -c 2 -a 0 -i 6 -k MAC
+ -t 0.329067147 -s 12 -d -1 -p message -e 90 -c 2 -a 0 -i 7 -k MAC 
- -t 0.329067147 -s 12 -d -1 -p message -e 90 -c 2 -a 0 -i 7 -k MAC
h -t 0.329067147 -s 12 -d -1 -p message -e 90 -c 2 -a 0 -i 7 -k MAC
r -t 0.329787147 -s 11 -d -1 -p message -e 32 -c 2 -a 0 -i 7 -k MAC
r -t 0.329787147 -s 10 -d -1 -p message -e 32 -c 2 -a 0 -i 7 -k MAC
r -t 0.329787147 -s 9 -d -1 -p message -e 32 -c 2 -a 0 -i 7 -k MAC
r -t 0.329787147 -s 8 -d -1 -p message -e 32 -c 2 -a 0 -i 7 -k MAC
r -t 0.329787147 -s 13 -d -1 -p message -e 32 -c 2 -a 0 -i 7 -k MAC
r -t 0.329787147 -s 14 -d -1 -p message -e 32 -c 2 -a 0 -i 7 -k MAC
r -t 0.329787147 -s 15 -d -1 -p message -e 32 -c 2 -a 0 -i 7 -k MAC
r -t 0.329787154 -s 7 -d -1 -p message -e 32 -c 2 -a 0 -i 7 -k MAC
r -t 0.329787154 -s 6 -d -1 -p message -e 32 -c 2 -a 0 -i 7 -k MAC
r -t 0.329787154 -s 5 -d -1 -p message -e 32 -c 2 -a 0 -i 7 -k MAC
r -t 0.329787154 -s 4 -d -1 -p message -e 32 -c 2 -a 0 -i 7 -k MAC
r -t 0.329787154 -s 3 -d -1 -p message -e 32 -c 2 -a 0 -i 7 -k MAC
r -t 0.329787154 -s 2 -d -1 -p message -e 32 -c 2 -a 0 -i 7 -k MAC
r -t 0.329787154 -s 1 -d -1 -p message -e 32 -c 2 -a 0 -i 7 -k MAC
r -t 0.329787154 -s 0 -d -1 -p message -e 32 -c 2 -a 0 -i 7 -k MAC
r -t 0.329787154 -s 16 -d -1 -p message -e 32 -c 2 -a 0 -i 7 -k MAC
r -t 0.329787154 -s 17 -d -1 -p message -e 32 -c 2 -a 0 -i 7 -k MAC
r -t 0.329787154 -s 18 -d -1 -p message -e 32 -c 2 -a 0 -i 7 -k MAC
r -t 0.329787154 -s 19 -d -1 -p message -e 32 -c 2 -a 0 -i 7 -k MAC
r -t 0.329787154 -s 20 -d -1 -p message -e 32 -c 2 -a 0 -i 7 -k MAC
r -t 0.329787154 -s 21 -d -1 -p message -e 32 -c 2 -a 0 -i 7 -k MAC
r -t 0.329787154 -s 22 -d -1 -p message -e 32 -c 2 -a 0 -i 7 -k MAC
r -t 0.329787154 -s 23 -d -1 -p message -e 32 -c 2 -a 0 -i 7 -k MAC
r -t 0.329787161 -s 24 -d -1 -p message -e 32 -c 2 -a 0 -i 7 -k MAC
r -t 0.329787161 -s 25 -d -1 -p message -e 32 -c 2 -a 0 -i 7 -k MAC
r -t 0.329787161 -s 26 -d -1 -p message -e 32 -c 2 -a 0 -i 7 -k MAC
r -t 0.329787161 -s 27 -d -1 -p message -e 32 -c 2 -a 0 -i 7 -k MAC
r -t 0.329787161 -s 28 -d -1 -p message -e 32 -c 2 -a 0 -i 7 -k MAC
r -t 0.329787161 -s 29 -d -1 -p message -e 32 -c 2 -a 0 -i 7 -k MAC
r -t 0.329787161 -s 30 -d -1 -p message -e 32 -c 2 -a 0 -i 7 -k MAC
r -t 0.329787161 -s 31 -d -1 -p message -e 32 -c 2 -a 0 -i 7 -k MAC
r -t 0.329787167 -s 32 -d -1 -p message -e 32 -c 2 -a 0 -i 7 -k MAC
r -t 0.329787167 -s 33 -d -1 -p message -e 32 -c 2 -a 0 -i 7 -k MAC
r -t 0.329787167 -s 34 -d -1 -p message -e 32 -c 2 -a 0 -i 7 -k MAC
r -t 0.329787167 -s 35 -d -1 -p message -e 32 -c 2 -a 0 -i 7 -k MAC
r -t 0.329787167 -s 36 -d -1 -p message -e 32 -c 2 -a 0 -i 7 -k MAC
r -t 0.329787167 -s 37 -d -1 -p message -e 32 -c 2 -a 0 -i 7 -k MAC
r -t 0.329787167 -s 38 -d -1 -p message -e 32 -c 2 -a 0 -i 7 -k MAC
r -t 0.329787167 -s 39 -d -1 -p message -e 32 -c 2 -a 0 -i 7 -k MAC
+ -t 0.354097708 -s 18 -d -1 -p message -e 90 -c 2 -a 0 -i 8 -k MAC 
- -t 0.354097708 -s 18 -d -1 -p message -e 90 -c 2 -a 0 -i 8 -k MAC
h -t 0.354097708 -s 18 -d -1 -p message -e 90 -c 2 -a 0 -i 8 -k MAC
r -t 0.354817708 -s 17 -d -1 -p message -e 32 -c 2 -a 0 -i 8 -k MAC
r -t 0.354817708 -s 16 -d -1 -p message -e 32 -c 2 -a 0 -i 8 -k MAC
r -t 0.354817708 -s 19 -d -1 -p message -e 32 -c 2 -a 0 -i 8 -k MAC
r -t 0.354817708 -s 20 -d -1 -p message -e 32 -c 2 -a 0 -i 8 -k MAC
r -t 0.354817708 -s 21 -d -1 -p message -e 32 -c 2 -a 0 -i 8 -k MAC
r -t 0.354817708 -s 22 -d -1 -p message -e 32 -c 2 -a 0 -i 8 -k MAC
r -t 0.354817708 -s 23 -d -1 -p message -e 32 -c 2 -a 0 -i 8 -k MAC
r -t 0.354817715 -s 15 -d -1 -p message -e 32 -c 2 -a 0 -i 8 -k MAC
r -t 0.354817715 -s 14 -d -1 -p message -e 32 -c 2 -a 0 -i 8 -k MAC
r -t 0.354817715 -s 13 -d -1 -p message -e 32 -c 2 -a 0 -i 8 -k MAC
r -t 0.354817715 -s 12 -d -1 -p message -e 32 -c 2 -a 0 -i 8 -k MAC
r -t 0.354817715 -s 11 -d -1 -p message -e 32 -c 2 -a 0 -i 8 -k MAC
r -t 0.354817715 -s 10 -d -1 -p message -e 32 -c 2 -a 0 -i 8 -k MAC
r -t 0.354817715 -s 9 -d -1 -p message -e 32 -c 2 -a 0 -i 8 -k MAC
r -t 0.354817715 -s 8 -d -1 -p message -e 32 -c 2 -a 0 -i 8 -k MAC
r -t 0.354817715 -s 24 -d -1 -p message -e 32 -c 2 -a 0 -i 8 -k MAC
r -t 0.354817715 -s 25 -d -1 -p message -e 32 -c 2 -a 0 -i 8 -k MAC
r -t 0.354817715 -s 26 -d -1 -p message -e 32 -c 2 -a 0 -i 8 -k MAC
r -t 0.354817715 -s 27 -d -1 -p message -e 32 -c 2 -a 0 -i 8 -k MAC
r -t 0.354817715 -s 28 -d -1 -p message -e 32 -c 2 -a 0 -i 8 -k MAC
r -t 0.354817715 -s 29 -d -1 -p message -e 32 -c 2 -a 0 -i 8 -k MAC
r -t 0.354817715 -s 30 -d -1 -p message -e 32 -c 2 -a 0 -i 8 -k MAC
r -t 0.354817715 -s 31 -d -1 -p message -e 32 -c 2 -a 0 -i 8 -k MAC
r -t 0.354817721 -s 7 -d -1 -p message -e 32 -c 2 -a 0 -i 8 -k MAC
r -t 0.354817721 -s 6 -d -1 -p message -e 32 -c 2 -a 0 -i 8 -k MAC
r -t 0.354817721 -s 5 -d -1 -p message -e 32 -c 2 -a 0 -i 8 -k MAC
r -t 0.354817721 -s 4 -d -1 -p message -e 32 -c 2 -a 0 -i 8 -k MAC
r -t 0.354817721 -s 3 -d -1 -p message -e 32 -c 2 -a 0 -i 8 -k MAC
r -t 0.354817721 -s 2 -d -1 -p message -e 32 -c 2 -a 0 -i 8 -k MAC
r -t 0.354817721 -s 1 -d -1 -p message -e 32 -c 2 -a 0 -i 8 -k MAC
r -t 0.354817721 -s 0 -d -1 -p message -e 32 -c 2 -a 0 -i 8 -k MAC
r -t 0.354817721 -s 32 -d -1 -p message -e 32 -c 2 -a 0 -i 8 -k MAC
r -t 0.354817721 -s 33 -d -1 -p message -e 32 -c 2 -a 0 -i 8 -k MAC
r -t 0.354817721 -s 34 -d -1 -p message -e 32 -c 2 -a 0 -i 8 -k MAC
r -t 0.354817721 -s 35 -d -1 -p message -e 32 -c 2 -a 0 -i 8 -k MAC
r -t 0.354817721 -s 36 -d -1 -p message -e 32 -c 2 -a 0 -i 8 -k MAC
r -t 0.354817721 -s 37 -d -1 -p message -e 32 -c 2 -a 0 -i 8 -k MAC
r -t 0.354817721 -s 38 -d -1 -p message -e 32 -c 2 -a 0 -i 8 -k MAC
r -t 0.354817721 -s 39 -d -1 -p message -e 32 -c 2 -a 0 -i 8 -k MAC
+ -t 0.367435343 -s 3 -d -1 -p cbr -e 500 -c 2 -a 0 -i 9 -k AGT 
- -t 0.367435343 -s 3 -d -1 -p cbr -e 500 -c 2 -a 0 -i 9 -k AGT
h -t 0.367435343 -s 3 -d -1 -p cbr -e 500 -c 2 -a 0 -i 9 -k AGT
+ -t 0.371435343 -s 3 -d -1 -p cbr -e 500 -c 2 -a 0 -i 10 -k AGT 
- -t 0.371435343 -s 3 -d -1 -p cbr -e 500 -c 2 -a 0 -i 10 -k AGT
h -t 0.371435343 -s 3 -d -1 -p cbr -e 500 -c 2 -a 0 -i 10 -k AGT
+ -t 0.375435343 -s 3 -d -1 -p cbr -e 500 -c 2 -a 0 -i 12 -k AGT 
- -t 0.375435343 -s 3 -d -1 -p cbr -e 500 -c 2 -a 0 -i 12 -k AGT
h -t 0.375435343 -s 3 -d -1 -p cbr -e 500 -c 2 -a 0 -i 12 -k AGT
+ -t 0.379435343 -s 3 -d -1 -p cbr -e 500 -c 2 -a 0 -i 13 -k AGT 
- -t 0.379435343 -s 3 -d -1 -p cbr -e 500 -c 2 -a 0 -i 13 -k AGT
h -t 0.379435343 -s 3 -d -1 -p cbr -e 500 -c 2 -a 0 -i 13 -k AGT
+ -t 0.382205901 -s 38 -d -1 -p message -e 90 -c 2 -a 0 -i 11 -k MAC 
- -t 0.382205901 -s 38 -d -1 -p message -e 90 -c 2 -a 0 -i 11 -k MAC
h -t 0.382205901 -s 38 -d -1 -p message -e 90 -c 2 -a 0 -i 11 -k MAC
r -t 0.382925901 -s 37 -d -1 -p message -e 32 -c 2 -a 0 -i 11 -k MAC
r -t 0.382925901 -s 36 -d -1 -p message -e 32 -c 2 -a 0 -i 11 -k MAC
r -t 0.382925901 -s 35 -d -1 -p message -e 32 -c 2 -a 0 -i 11 -k MAC
r -t 0.382925901 -s 34 -d -1 -p message -e 32 -c 2 -a 0 -i 11 -k MAC
r -t 0.382925901 -s 33 -d -1 -p message -e 32 -c 2 -a 0 -i 11 -k MAC
r -t 0.382925901 -s 32 -d -1 -p message -e 32 -c 2 -a 0 -i 11 -k MAC
r -t 0.382925901 -s 39 -d -1 -p message -e 32 -c 2 -a 0 -i 11 -k MAC
r -t 0.382925908 -s 31 -d -1 -p message -e 32 -c 2 -a 0 -i 11 -k MAC
r -t 0.382925908 -s 30 -d -1 -p message -e 32 -c 2 -a 0 -i 11 -k MAC
r -t 0.382925908 -s 29 -d -1 -p message -e 32 -c 2 -a 0 -i 11 -k MAC
r -t 0.382925908 -s 28 -d -1 -p message -e 32 -c 2 -a 0 -i 11 -k MAC
r -t 0.382925908 -s 27 -d -1 -p message -e 32 -c 2 -a 0 -i 11 -k MAC
r -t 0.382925908 -s 26 -d -1 -p message -e 32 -c 2 -a 0 -i 11 -k MAC
r -t 0.382925908 -s 25 -d -1 -p message -e 32 -c 2 -a 0 -i 11 -k MAC
r -t 0.382925908 -s 24 -d -1 -p message -e 32 -c 2 -a 0 -i 11 -k MAC